chemical_formula,Tc,composition,elements,stoichiometry,Category,num_elements
Pr1.85Ce0.15Cu0.97V0.03O3.98,21.2,Pr1.85 Ce0.15 Cu0.97 V0.03 O3.98,"[Element Pr, Element Ce, Element Cu, Element V, Element O]","{'Pr': 1.85, 'Ce': 0.15, 'Cu': 0.97, 'V': 0.03, 'O': 3.98}",Cuprates,5
Pr1.85Ce0.15Cu0.96V0.04O3.98,22.4,Pr1.85 Ce0.15 Cu0.96 V0.04 O3.98,"[Element Pr, Element Ce, Element Cu, Element V, Element O]","{'Pr': 1.85, 'Ce': 0.15, 'Cu': 0.96, 'V': 0.04, 'O': 3.98}",Cuprates,5
Ce1Cu2Si1.8Ge0.2,0.12,Ce1 Cu2 Si1.8 Ge0.2,"[Element Ce, Element Cu, Element Si, Element Ge]","{'Ce': 1.0, 'Cu': 2.0, 'Si': 1.8, 'Ge': 0.2}",Other,4
La3Ca1Ba3Cu7O16.678,80.5,La3 Ca1 Ba3 Cu7 O16.678,"[Element La, Element Ca, Element Ba, Element Cu, Element O]","{'La': 3.0, 'Ca': 1.0, 'Ba': 3.0, 'Cu': 7.0, 'O': 16.678}",Cuprates,5
Pr1.96Ce0.04Cu1O4,23.6,Pr1.96 Ce0.04 Cu1 O4,"[Element Pr, Element Ce, Element Cu, Element O]","{'Pr': 1.96, 'Ce': 0.04, 'Cu': 1.0, 'O': 4.0}",Cuprates,4
Pr1.91Ce0.09Cu1O4,21.5,Pr1.91 Ce0.09 Cu1 O4,"[Element Pr, Element Ce, Element Cu, Element O]","{'Pr': 1.91, 'Ce': 0.09, 'Cu': 1.0, 'O': 4.0}",Cuprates,4
U1Be12.9896B0.0104,1.89,U1 Be12.9896 B0.0104,"[Element U, Element Be, Element B]","{'U': 1.0, 'Be': 12.9896, 'B': 0.0104}",Other,3
U1Be12.9701B0.0299,1.66,U1 Be12.9701 B0.0299,"[Element U, Element Be, Element B]","{'U': 1.0, 'Be': 12.9701, 'B': 0.0299}",Other,3
U1Be12.9558B0.0442,0.988,U1 Be12.9558 B0.0442,"[Element U, Element Be, Element B]","{'U': 1.0, 'Be': 12.9558, 'B': 0.0442}",Other,3
Ce1Pt3.03Si0.97,0.37,Ce1 Pt3.03 Si0.97,"[Element Ce, Element Pt, Element Si]","{'Ce': 1.0, 'Pt': 3.03, 'Si': 0.97}",Other,3
Ce1Pt2.97Si1,0.72,Ce1 Pt2.97 Si1,"[Element Ce, Element Pt, Element Si]","{'Ce': 1.0, 'Pt': 2.97, 'Si': 1.0}",Other,3
Ce1.01Pt3Si1,0.75,Ce1.01 Pt3 Si1,"[Element Ce, Element Pt, Element Si]","{'Ce': 1.01, 'Pt': 3.0, 'Si': 1.0}",Other,3
Ce1Ni2Ge2,0.23,Ce1 Ni2 Ge2,"[Element Ce, Element Ni, Element Ge]","{'Ce': 1.0, 'Ni': 2.0, 'Ge': 2.0}",Other,3
Ce1Ir1Si3,1.6,Ce1 Ir1 Si3,"[Element Ce, Element Ir, Element Si]","{'Ce': 1.0, 'Ir': 1.0, 'Si': 3.0}",Other,3
Mo6Se7.6,6.28,Mo6 Se7.6,"[Element Mo, Element Se]","{'Mo': 6.0, 'Se': 7.6}",Other,2
Hf1V2,9.67,Hf1 V2,"[Element Hf, Element V]","{'Hf': 1.0, 'V': 2.0}",Other,2
Hf1V2H0.5,7.33,Hf1 V2 H0.5,"[Element Hf, Element V, Element H]","{'Hf': 1.0, 'V': 2.0, 'H': 0.5}",Hydrides,3
Hf1V2H0.4,8.42,Hf1 V2 H0.4,"[Element Hf, Element V, Element H]","{'Hf': 1.0, 'V': 2.0, 'H': 0.4}",Hydrides,3
Hf1V2H1,4.87,Hf1 V2 H1,"[Element Hf, Element V, Element H]","{'Hf': 1.0, 'V': 2.0, 'H': 1.0}",Hydrides,3
Hf1V2H1.6,2.2,Hf1 V2 H1.6,"[Element Hf, Element V, Element H]","{'Hf': 1.0, 'V': 2.0, 'H': 1.6}",Hydrides,3
Hf1V1.85Fe0.15,7.04,Hf1 V1.85 Fe0.15,"[Element Hf, Element V, Element Fe]","{'Hf': 1.0, 'V': 1.85, 'Fe': 0.15}",Fe-based,3
Hf1V1.7Fe0.3,5.0,Hf1 V1.7 Fe0.3,"[Element Hf, Element V, Element Fe]","{'Hf': 1.0, 'V': 1.7, 'Fe': 0.3}",Fe-based,3
C6Ca1,11.46,C6 Ca1,"[Element C, Element Ca]","{'C': 6.0, 'Ca': 1.0}",Other,2
Ce1Rh0.4Ir0.6In5,0.91,Ce1 Rh0.4 Ir0.6 In5,"[Element Ce, Element Rh, Element Ir, Element In]","{'Ce': 1.0, 'Rh': 0.4, 'Ir': 0.6, 'In': 5.0}",Other,4
Ce1Rh0.3Ir0.7In5,1.2,Ce1 Rh0.3 Ir0.7 In5,"[Element Ce, Element Rh, Element Ir, Element In]","{'Ce': 1.0, 'Rh': 0.3, 'Ir': 0.7, 'In': 5.0}",Other,4
Ce1Rh0.2Ir0.8In5,0.67,Ce1 Rh0.2 Ir0.8 In5,"[Element Ce, Element Rh, Element Ir, Element In]","{'Ce': 1.0, 'Rh': 0.2, 'Ir': 0.8, 'In': 5.0}",Other,4
Ce1Rh0.1Ir0.9In5,0.35,Ce1 Rh0.1 Ir0.9 In5,"[Element Ce, Element Rh, Element Ir, Element In]","{'Ce': 1.0, 'Rh': 0.1, 'Ir': 0.9, 'In': 5.0}",Other,4
Ce1.005Ni2.02Ge1.98,0.03,Ce1.005 Ni2.02 Ge1.98,"[Element Ce, Element Ni, Element Ge]","{'Ce': 1.005, 'Ni': 2.02, 'Ge': 1.98}",Other,3
Ce1.005Ni2.025Ge1.975,0.035,Ce1.005 Ni2.025 Ge1.975,"[Element Ce, Element Ni, Element Ge]","{'Ce': 1.005, 'Ni': 2.025, 'Ge': 1.975}",Other,3
Ca1Al1Si1,6.0,Ca1 Al1 Si1,"[Element Ca, Element Al, Element Si]","{'Ca': 1.0, 'Al': 1.0, 'Si': 1.0}",Other,3
La1.85Sr0.15Cu0.98Ti0.02O4,32.3,La1.85 Sr0.15 Cu0.98 Ti0.02 O4,"[Element La, Element Sr, Element Cu, Element Ti, Element O]","{'La': 1.85, 'Sr': 0.15, 'Cu': 0.98, 'Ti': 0.02, 'O': 4.0}",Cuprates,5
La1.85Sr0.15Cu0.96Ti0.04O4,26.1,La1.85 Sr0.15 Cu0.96 Ti0.04 O4,"[Element La, Element Sr, Element Cu, Element Ti, Element O]","{'La': 1.85, 'Sr': 0.15, 'Cu': 0.96, 'Ti': 0.04, 'O': 4.0}",Cuprates,5
La1.81Sr0.19Cu0.98Ti0.02O4,33.0,La1.81 Sr0.19 Cu0.98 Ti0.02 O4,"[Element La, Element Sr, Element Cu, Element Ti, Element O]","{'La': 1.81, 'Sr': 0.19, 'Cu': 0.98, 'Ti': 0.02, 'O': 4.0}",Cuprates,5
La1.77Sr0.23Cu0.96Ti0.04O4,32.8,La1.77 Sr0.23 Cu0.96 Ti0.04 O4,"[Element La, Element Sr, Element Cu, Element Ti, Element O]","{'La': 1.77, 'Sr': 0.23, 'Cu': 0.96, 'Ti': 0.04, 'O': 4.0}",Cuprates,5
La1.73Sr0.27Cu0.94Ti0.06O4,30.0,La1.73 Sr0.27 Cu0.94 Ti0.06 O4,"[Element La, Element Sr, Element Cu, Element Ti, Element O]","{'La': 1.73, 'Sr': 0.27, 'Cu': 0.94, 'Ti': 0.06, 'O': 4.0}",Cuprates,5
La1.69Sr0.31Cu0.92Ti0.08O4,30.0,La1.69 Sr0.31 Cu0.92 Ti0.08 O4,"[Element La, Element Sr, Element Cu, Element Ti, Element O]","{'La': 1.69, 'Sr': 0.31, 'Cu': 0.92, 'Ti': 0.08, 'O': 4.0}",Cuprates,5
La1.65Sr0.35Cu0.9Ti0.1O4,29.9,La1.65 Sr0.35 Cu0.9 Ti0.1 O4,"[Element La, Element Sr, Element Cu, Element Ti, Element O]","{'La': 1.65, 'Sr': 0.35, 'Cu': 0.9, 'Ti': 0.1, 'O': 4.0}",Cuprates,5
Ba8Si46,8.0,Ba8 Si46,"[Element Ba, Element Si]","{'Ba': 8.0, 'Si': 46.0}",Other,2
Ba6Sr2Si46,7.2,Ba6 Sr2 Si46,"[Element Ba, Element Sr, Element Si]","{'Ba': 6.0, 'Sr': 2.0, 'Si': 46.0}",Other,3
Ba4Sr4Si46,5.3,Ba4 Sr4 Si46,"[Element Ba, Element Sr, Element Si]","{'Ba': 4.0, 'Sr': 4.0, 'Si': 46.0}",Other,3
Ba2Sr6Si46,4.1,Ba2 Sr6 Si46,"[Element Ba, Element Sr, Element Si]","{'Ba': 2.0, 'Sr': 6.0, 'Si': 46.0}",Other,3
Ba7Ca1Si46,7.65,Ba7 Ca1 Si46,"[Element Ba, Element Ca, Element Si]","{'Ba': 7.0, 'Ca': 1.0, 'Si': 46.0}",Other,3
Ba6Ca2Si46,5.2,Ba6 Ca2 Si46,"[Element Ba, Element Ca, Element Si]","{'Ba': 6.0, 'Ca': 2.0, 'Si': 46.0}",Other,3
Ba4Ca4Si46,3.7,Ba4 Ca4 Si46,"[Element Ba, Element Ca, Element Si]","{'Ba': 4.0, 'Ca': 4.0, 'Si': 46.0}",Other,3
La1Ru4P12,7.2,La1 Ru4 P12,"[Element La, Element Ru, Element P]","{'La': 1.0, 'Ru': 4.0, 'P': 12.0}",Other,3
Mg0.997Fe0.003B2,37.7,Mg0.997 Fe0.003 B2,"[Element Mg, Element Fe, Element B]","{'Mg': 0.997, 'Fe': 0.003, 'B': 2.0}",Fe-based,3
Mg0.994Fe0.006B2,34.2,Mg0.994 Fe0.006 B2,"[Element Mg, Element Fe, Element B]","{'Mg': 0.994, 'Fe': 0.006, 'B': 2.0}",Fe-based,3
Mg0.988Fe0.012B2,32.0,Mg0.988 Fe0.012 B2,"[Element Mg, Element Fe, Element B]","{'Mg': 0.988, 'Fe': 0.012, 'B': 2.0}",Fe-based,3
Mg0.97Fe0.03B2,30.0,Mg0.97 Fe0.03 B2,"[Element Mg, Element Fe, Element B]","{'Mg': 0.97, 'Fe': 0.03, 'B': 2.0}",Fe-based,3
Mg0.95Al0.025Li0.025B2,37.0,Mg0.95 Al0.025 Li0.025 B2,"[Element Mg, Element Al, Element Li, Element B]","{'Mg': 0.95, 'Al': 0.025, 'Li': 0.025, 'B': 2.0}",Other,4
Mg0.9Al0.05Li0.05B2,36.4,Mg0.9 Al0.05 Li0.05 B2,"[Element Mg, Element Al, Element Li, Element B]","{'Mg': 0.9, 'Al': 0.05, 'Li': 0.05, 'B': 2.0}",Other,4
Mg0.8Al0.1Li0.1B2,32.9,Mg0.8 Al0.1 Li0.1 B2,"[Element Mg, Element Al, Element Li, Element B]","{'Mg': 0.8, 'Al': 0.1, 'Li': 0.1, 'B': 2.0}",Other,4
Mg0.7Al0.15Li0.15B2,32.0,Mg0.7 Al0.15 Li0.15 B2,"[Element Mg, Element Al, Element Li, Element B]","{'Mg': 0.7, 'Al': 0.15, 'Li': 0.15, 'B': 2.0}",Other,4
Mg0.65Al0.175Li0.175B2,30.7,Mg0.65 Al0.175 Li0.175 B2,"[Element Mg, Element Al, Element Li, Element B]","{'Mg': 0.65, 'Al': 0.175, 'Li': 0.175, 'B': 2.0}",Other,4
Mg0.6Al0.2Li0.2B2,26.1,Mg0.6 Al0.2 Li0.2 B2,"[Element Mg, Element Al, Element Li, Element B]","{'Mg': 0.6, 'Al': 0.2, 'Li': 0.2, 'B': 2.0}",Other,4
Mg0.55Al0.225Li0.225B2,25.6,Mg0.55 Al0.225 Li0.225 B2,"[Element Mg, Element Al, Element Li, Element B]","{'Mg': 0.55, 'Al': 0.225, 'Li': 0.225, 'B': 2.0}",Other,4
B2Nb1,2.73,B2 Nb1,"[Element B, Element Nb]","{'B': 2.0, 'Nb': 1.0}",Other,2
B2Nb0.9,3.64,B2 Nb0.9,"[Element B, Element Nb]","{'B': 2.0, 'Nb': 0.9}",Other,2
B2Nb0.8,4.55,B2 Nb0.8,"[Element B, Element Nb]","{'B': 2.0, 'Nb': 0.8}",Other,2
B2Nb0.7,7.96,B2 Nb0.7,"[Element B, Element Nb]","{'B': 2.0, 'Nb': 0.7}",Other,2
B2Nb0.6,8.04,B2 Nb0.6,"[Element B, Element Nb]","{'B': 2.0, 'Nb': 0.6}",Other,2
B2Nb0.5,7.56,B2 Nb0.5,"[Element B, Element Nb]","{'B': 2.0, 'Nb': 0.5}",Other,2
B2Nb0.4,6.57,B2 Nb0.4,"[Element B, Element Nb]","{'B': 2.0, 'Nb': 0.4}",Other,2
B2Nb0.3,6.1,B2 Nb0.3,"[Element B, Element Nb]","{'B': 2.0, 'Nb': 0.3}",Other,2
Nb2Sn1C1,4.0,Nb2 Sn1 C1,"[Element Nb, Element Sn, Element C]","{'Nb': 2.0, 'Sn': 1.0, 'C': 1.0}",Other,3
C1Ta1,10.16,C1 Ta1,"[Element C, Element Ta]","{'C': 1.0, 'Ta': 1.0}",Other,2
C1Nb1,9.0,C1 Nb1,"[Element C, Element Nb]","{'C': 1.0, 'Nb': 1.0}",Other,2
Nb0.4Ta0.6C1,11.8,Nb0.4 Ta0.6 C1,"[Element Nb, Element Ta, Element C]","{'Nb': 0.4, 'Ta': 0.6, 'C': 1.0}",Other,3
C0.44Mo0.56,13.0,C0.44 Mo0.56,"[Element C, Element Mo]","{'C': 0.44, 'Mo': 0.56}",Other,2
Mo3Al2C1,10.0,Mo3 Al2 C1,"[Element Mo, Element Al, Element C]","{'Mo': 3.0, 'Al': 2.0, 'C': 1.0}",Other,3
La1Fe1P1O1,4.1,La1 Fe1 P1 O1,"[Element La, Element Fe, Element P, Element O]","{'La': 1.0, 'Fe': 1.0, 'P': 1.0, 'O': 1.0}",Fe-based,4
La1Fe1P1F0.06O0.94,7.5,La1 Fe1 P1 F0.06 O0.94,"[Element La, Element Fe, Element P, Element F, Element O]","{'La': 1.0, 'Fe': 1.0, 'P': 1.0, 'F': 0.06, 'O': 0.94}",Fe-based,5
Ru1Sr2Eu1.5Ce0.5Cu2O9.6,33.0,Ru1 Sr2 Eu1.5 Ce0.5 Cu2 O9.6,"[Element Ru, Element Sr, Element Eu, Element Ce, Element Cu, Element O]","{'Ru': 1.0, 'Sr': 2.0, 'Eu': 1.5, 'Ce': 0.5, 'Cu': 2.0, 'O': 9.6}",Cuprates,6
Bi2Ni3S2,0.79,Bi2 Ni3 S2,"[Element Bi, Element Ni, Element S]","{'Bi': 2.0, 'Ni': 3.0, 'S': 2.0}",Other,3
Bi2Ni3Se2,0.73,Bi2 Ni3 Se2,"[Element Bi, Element Ni, Element Se]","{'Bi': 2.0, 'Ni': 3.0, 'Se': 2.0}",Other,3
Tl2Ba2Ca1Cu1.98Fe0.02O8,106.0,Tl2 Ba2 Ca1 Cu1.98 Fe0.02 O8,"[Element Tl, Element Ba, Element Ca, Element Cu, Element Fe, Element O]","{'Tl': 2.0, 'Ba': 2.0, 'Ca': 1.0, 'Cu': 1.98, 'Fe': 0.02, 'O': 8.0}",Cuprates,6
Tl2Ba2Ca1Cu1.98Fe0.02F0.1O7.95,110.0,Tl2 Ba2 Ca1 Cu1.98 Fe0.02 F0.1 O7.95,"[Element Tl, Element Ba, Element Ca, Element Cu, Element Fe, Element F, Element O]","{'Tl': 2.0, 'Ba': 2.0, 'Ca': 1.0, 'Cu': 1.98, 'Fe': 0.02, 'F': 0.1, 'O': 7.95}",Cuprates,7
Tl2Ba2Ca1Cu1.98Fe0.02F0.2O7.9,109.0,Tl2 Ba2 Ca1 Cu1.98 Fe0.02 F0.2 O7.9,"[Element Tl, Element Ba, Element Ca, Element Cu, Element Fe, Element F, Element O]","{'Tl': 2.0, 'Ba': 2.0, 'Ca': 1.0, 'Cu': 1.98, 'Fe': 0.02, 'F': 0.2, 'O': 7.9}",Cuprates,7
Tl2Ba2Ca1Cu1.98Fe0.02F0.3O7.85,101.0,Tl2 Ba2 Ca1 Cu1.98 Fe0.02 F0.3 O7.85,"[Element Tl, Element Ba, Element Ca, Element Cu, Element Fe, Element F, Element O]","{'Tl': 2.0, 'Ba': 2.0, 'Ca': 1.0, 'Cu': 1.98, 'Fe': 0.02, 'F': 0.3, 'O': 7.85}",Cuprates,7
Tl2Ba2Ca0.9Ce0.1Cu1.98Fe0.02O8,99.0,Tl2 Ba2 Ca0.9 Ce0.1 Cu1.98 Fe0.02 O8,"[Element Tl, Element Ba, Element Ca, Element Ce, Element Cu, Element Fe, Element O]","{'Tl': 2.0, 'Ba': 2.0, 'Ca': 0.9, 'Ce': 0.1, 'Cu': 1.98, 'Fe': 0.02, 'O': 8.0}",Cuprates,7
Tl2Ba2Ca0.9Ce0.1Cu2O8,100.0,Tl2 Ba2 Ca0.9 Ce0.1 Cu2 O8,"[Element Tl, Element Ba, Element Ca, Element Ce, Element Cu, Element O]","{'Tl': 2.0, 'Ba': 2.0, 'Ca': 0.9, 'Ce': 0.1, 'Cu': 2.0, 'O': 8.0}",Cuprates,6
Tl2Ba2Ca0.8Ce0.2Cu2O8,103.0,Tl2 Ba2 Ca0.8 Ce0.2 Cu2 O8,"[Element Tl, Element Ba, Element Ca, Element Ce, Element Cu, Element O]","{'Tl': 2.0, 'Ba': 2.0, 'Ca': 0.8, 'Ce': 0.2, 'Cu': 2.0, 'O': 8.0}",Cuprates,6
Ce1Rh0.9Ir0.1In5,2.04,Ce1 Rh0.9 Ir0.1 In5,"[Element Ce, Element Rh, Element Ir, Element In]","{'Ce': 1.0, 'Rh': 0.9, 'Ir': 0.1, 'In': 5.0}",Other,4
Ce1Rh0.75Ir0.25In5,1.84,Ce1 Rh0.75 Ir0.25 In5,"[Element Ce, Element Rh, Element Ir, Element In]","{'Ce': 1.0, 'Rh': 0.75, 'Ir': 0.25, 'In': 5.0}",Other,4
Ce1Rh0.5Ir0.5In5,0.79,Ce1 Rh0.5 Ir0.5 In5,"[Element Ce, Element Rh, Element Ir, Element In]","{'Ce': 1.0, 'Rh': 0.5, 'Ir': 0.5, 'In': 5.0}",Other,4
Li0.68Nb1O2,5.15,Li0.68 Nb1 O2,"[Element Li, Element Nb, Element O]","{'Li': 0.68, 'Nb': 1.0, 'O': 2.0}",Other,3
K1Tl1.5C4,2.7,K1 Tl1.5 C4,"[Element K, Element Tl, Element C]","{'K': 1.0, 'Tl': 1.5, 'C': 4.0}",Other,3
K1Tl1.5C8,2.45,K1 Tl1.5 C8,"[Element K, Element Tl, Element C]","{'K': 1.0, 'Tl': 1.5, 'C': 8.0}",Other,3
C8K1,0.134,C8 K1,"[Element C, Element K]","{'C': 8.0, 'K': 1.0}",Other,2
K1Hg1C4,0.86,K1 Hg1 C4,"[Element K, Element Hg, Element C]","{'K': 1.0, 'Hg': 1.0, 'C': 4.0}",Other,3
Rb1Hg1C4,0.99,Rb1 Hg1 C4,"[Element Rb, Element Hg, Element C]","{'Rb': 1.0, 'Hg': 1.0, 'C': 4.0}",Other,3
K1Hg1C8,1.9,K1 Hg1 C8,"[Element K, Element Hg, Element C]","{'K': 1.0, 'Hg': 1.0, 'C': 8.0}",Other,3
Rb1Hg1C8,1.4,Rb1 Hg1 C8,"[Element Rb, Element Hg, Element C]","{'Rb': 1.0, 'Hg': 1.0, 'C': 8.0}",Other,3
S2Ta1,0.65,S2 Ta1,"[Element S, Element Ta]","{'S': 2.0, 'Ta': 1.0}",Other,2
Ta1S1.8Se0.2,2.75,Ta1 S1.8 Se0.2,"[Element Ta, Element S, Element Se]","{'Ta': 1.0, 'S': 1.8, 'Se': 0.2}",Other,3
Ta1S1.6Se0.4,3.84,Ta1 S1.6 Se0.4,"[Element Ta, Element S, Element Se]","{'Ta': 1.0, 'S': 1.6, 'Se': 0.4}",Other,3
Ta1S1.2Se0.8,3.7,Ta1 S1.2 Se0.8,"[Element Ta, Element S, Element Se]","{'Ta': 1.0, 'S': 1.2, 'Se': 0.8}",Other,3
Ta1S1Se1,3.36,Ta1 S1 Se1,"[Element Ta, Element S, Element Se]","{'Ta': 1.0, 'S': 1.0, 'Se': 1.0}",Other,3
Ta1S0.4Se1.6,3.04,Ta1 S0.4 Se1.6,"[Element Ta, Element S, Element Se]","{'Ta': 1.0, 'S': 0.4, 'Se': 1.6}",Other,3
Se2Ta1,0.14,Se2 Ta1,"[Element Se, Element Ta]","{'Se': 2.0, 'Ta': 1.0}",Other,2
N0.3S0.7,0.26,N0.3 S0.7,"[Element N, Element S]","{'N': 0.3, 'S': 0.7}",Other,2
Ce1Ru2,6.1,Ce1 Ru2,"[Element Ce, Element Ru]","{'Ce': 1.0, 'Ru': 2.0}",Other,2
Cr0.74Re0.26,3.12,Cr0.74 Re0.26,"[Element Cr, Element Re]","{'Cr': 0.74, 'Re': 0.26}",Other,2
C8Rb1,0.0252,C8 Rb1,"[Element C, Element Rb]","{'C': 8.0, 'Rb': 1.0}",Other,2
Bi3In5,4.14,Bi3 In5,"[Element Bi, Element In]","{'Bi': 3.0, 'In': 5.0}",Other,2
Nb1S2,5.84,Nb1 S2,"[Element Nb, Element S]","{'Nb': 1.0, 'S': 2.0}",Other,2
Cu1La1,6.15,Cu1 La1,"[Element Cu, Element La]","{'Cu': 1.0, 'La': 1.0}",Other,2
C2Li1,1.9,C2 Li1,"[Element C, Element Li]","{'C': 2.0, 'Li': 1.0}",Other,2
Ge1Nb3,19.09,Ge1 Nb3,"[Element Ge, Element Nb]","{'Ge': 1.0, 'Nb': 3.0}",Other,2
Sb1Ti3,5.5,Sb1 Ti3,"[Element Sb, Element Ti]","{'Sb': 1.0, 'Ti': 3.0}",Other,2
Ga0.205V0.795,9.7,Ga0.205 V0.795,"[Element Ga, Element V]","{'Ga': 0.205, 'V': 0.795}",Other,2
Ga0.222V0.778,12.3,Ga0.222 V0.778,"[Element Ga, Element V]","{'Ga': 0.222, 'V': 0.778}",Other,2
Ga0.236V0.764,14.6,Ga0.236 V0.764,"[Element Ga, Element V]","{'Ga': 0.236, 'V': 0.764}",Other,2
Ga0.248V0.752,15.1,Ga0.248 V0.752,"[Element Ga, Element V]","{'Ga': 0.248, 'V': 0.752}",Other,2
Ga0.253V0.747,14.9,Ga0.253 V0.747,"[Element Ga, Element V]","{'Ga': 0.253, 'V': 0.747}",Other,2
Ga0.265V0.735,13.6,Ga0.265 V0.735,"[Element Ga, Element V]","{'Ga': 0.265, 'V': 0.735}",Other,2
Ga0.281V0.719,12.2,Ga0.281 V0.719,"[Element Ga, Element V]","{'Ga': 0.281, 'V': 0.719}",Other,2
Ga0.296V0.704,12.1,Ga0.296 V0.704,"[Element Ga, Element V]","{'Ga': 0.296, 'V': 0.704}",Other,2
Ga0.25V0.75,15.3,Ga0.25 V0.75,"[Element Ga, Element V]","{'Ga': 0.25, 'V': 0.75}",Other,2
Nb3Sn1,17.6,Nb3 Sn1,"[Element Nb, Element Sn]","{'Nb': 3.0, 'Sn': 1.0}",Other,2
Nb3Pt1,8.7,Nb3 Pt1,"[Element Nb, Element Pt]","{'Nb': 3.0, 'Pt': 1.0}",Other,2
Au1Nb3,10.7,Au1 Nb3,"[Element Au, Element Nb]","{'Au': 1.0, 'Nb': 3.0}",Other,2
Nb3Au0.7Pt0.3,13.0,Nb3 Au0.7 Pt0.3,"[Element Nb, Element Au, Element Pt]","{'Nb': 3.0, 'Au': 0.7, 'Pt': 0.3}",Other,3
La1Os2,8.9,La1 Os2,"[Element La, Element Os]","{'La': 1.0, 'Os': 2.0}",Other,2
Si1V3,17.0,Si1 V3,"[Element Si, Element V]","{'Si': 1.0, 'V': 3.0}",Other,2
U2Pt1C2,1.47,U2 Pt1 C2,"[Element U, Element Pt, Element C]","{'U': 2.0, 'Pt': 1.0, 'C': 2.0}",Other,3
Mg0.99Al0.01B2,38.0,Mg0.99 Al0.01 B2,"[Element Mg, Element Al, Element B]","{'Mg': 0.99, 'Al': 0.01, 'B': 2.0}",Other,3
Mg0.95Al0.05B2,36.5,Mg0.95 Al0.05 B2,"[Element Mg, Element Al, Element B]","{'Mg': 0.95, 'Al': 0.05, 'B': 2.0}",Other,3
Na0.346Co1H2.6O3.3,4.81,Na0.346 Co1 H2.6 O3.3,"[Element Na, Element Co, Element H, Element O]","{'Na': 0.346, 'Co': 1.0, 'H': 2.6, 'O': 3.3}",Hydrides,4
Na0.38Co1H2.6O3.3,2.8,Na0.38 Co1 H2.6 O3.3,"[Element Na, Element Co, Element H, Element O]","{'Na': 0.38, 'Co': 1.0, 'H': 2.6, 'O': 3.3}",Hydrides,4
Na0.35Co1H1.4O2,4.7,Na0.35 Co1 H1.4 O2,"[Element Na, Element Co, Element H, Element O]","{'Na': 0.35, 'Co': 1.0, 'H': 1.4, 'O': 2.0}",Hydrides,4
Na0.35Co1H1.3O3.3,3.7,Na0.35 Co1 H1.3 O3.3,"[Element Na, Element Co, Element H, Element O]","{'Na': 0.35, 'Co': 1.0, 'H': 1.3, 'O': 3.3}",Hydrides,4
Sr2Cu1O3.4,75.0,Sr2 Cu1 O3.4,"[Element Sr, Element Cu, Element O]","{'Sr': 2.0, 'Cu': 1.0, 'O': 3.4}",Cuprates,3
Sr3Cu2Cl1O5,70.0,Sr3 Cu2 Cl1 O5,"[Element Sr, Element Cu, Element Cl, Element O]","{'Sr': 3.0, 'Cu': 2.0, 'Cl': 1.0, 'O': 5.0}",Cuprates,4
Sr0.8Ba1.2Cu1O3.35,50.0,Sr0.8 Ba1.2 Cu1 O3.35,"[Element Sr, Element Ba, Element Cu, Element O]","{'Sr': 0.8, 'Ba': 1.2, 'Cu': 1.0, 'O': 3.35}",Cuprates,4
Ce0.91La0.09Ru2,5.25,Ce0.91 La0.09 Ru2,"[Element Ce, Element La, Element Ru]","{'Ce': 0.91, 'La': 0.09, 'Ru': 2.0}",Other,3
Ce0.97La0.03Ru2,6.45,Ce0.97 La0.03 Ru2,"[Element Ce, Element La, Element Ru]","{'Ce': 0.97, 'La': 0.03, 'Ru': 2.0}",Other,3
Ce0.94La0.06Ru2,6.55,Ce0.94 La0.06 Ru2,"[Element Ce, Element La, Element Ru]","{'Ce': 0.94, 'La': 0.06, 'Ru': 2.0}",Other,3
Ce0.88La0.12Ru2,6.14,Ce0.88 La0.12 Ru2,"[Element Ce, Element La, Element Ru]","{'Ce': 0.88, 'La': 0.12, 'Ru': 2.0}",Other,3
Ce0.85La0.15Ru2,5.35,Ce0.85 La0.15 Ru2,"[Element Ce, Element La, Element Ru]","{'Ce': 0.85, 'La': 0.15, 'Ru': 2.0}",Other,3
Ce0.8La0.2Ru2,4.77,Ce0.8 La0.2 Ru2,"[Element Ce, Element La, Element Ru]","{'Ce': 0.8, 'La': 0.2, 'Ru': 2.0}",Other,3
Ce0.25La0.75Ru2,1.42,Ce0.25 La0.75 Ru2,"[Element Ce, Element La, Element Ru]","{'Ce': 0.25, 'La': 0.75, 'Ru': 2.0}",Other,3
Pb0.989Tl0.011Te1,1.16,Pb0.989 Tl0.011 Te1,"[Element Pb, Element Tl, Element Te]","{'Pb': 0.989, 'Tl': 0.011, 'Te': 1.0}",Other,3
Pb0.986Tl0.014Te1,1.38,Pb0.986 Tl0.014 Te1,"[Element Pb, Element Tl, Element Te]","{'Pb': 0.986, 'Tl': 0.014, 'Te': 1.0}",Other,3
Pr1Pt2B2C1,6.0,Pr1 Pt2 B2 C1,"[Element Pr, Element Pt, Element B, Element C]","{'Pr': 1.0, 'Pt': 2.0, 'B': 2.0, 'C': 1.0}",Other,4
Mg1B1.924C0.076,35.4,Mg1 B1.924 C0.076,"[Element Mg, Element B, Element C]","{'Mg': 1.0, 'B': 1.924, 'C': 0.076}",Other,3
Mg1B1.868C0.132,33.15,Mg1 B1.868 C0.132,"[Element Mg, Element B, Element C]","{'Mg': 1.0, 'B': 1.868, 'C': 0.132}",Other,3
Mg1B1.81C0.19,30.57,Mg1 B1.81 C0.19,"[Element Mg, Element B, Element C]","{'Mg': 1.0, 'B': 1.81, 'C': 0.19}",Other,3
Sm1.86Ce0.14Cu1O4,22.7,Sm1.86 Ce0.14 Cu1 O4,"[Element Sm, Element Ce, Element Cu, Element O]","{'Sm': 1.86, 'Ce': 0.14, 'Cu': 1.0, 'O': 4.0}",Cuprates,4
Sm1.857Ce0.143Cu1O4,22.3,Sm1.857 Ce0.143 Cu1 O4,"[Element Sm, Element Ce, Element Cu, Element O]","{'Sm': 1.857, 'Ce': 0.143, 'Cu': 1.0, 'O': 4.0}",Cuprates,4
Sm1.844Ce0.156Cu1O4,16.4,Sm1.844 Ce0.156 Cu1 O4,"[Element Sm, Element Ce, Element Cu, Element O]","{'Sm': 1.844, 'Ce': 0.156, 'Cu': 1.0, 'O': 4.0}",Cuprates,4
C2Mo3,7.4,C2 Mo3,"[Element C, Element Mo]","{'C': 2.0, 'Mo': 3.0}",Other,2
La1.85Sr0.11Ho0.04Cu1O4,13.9,La1.85 Sr0.11 Ho0.04 Cu1 O4,"[Element La, Element Sr, Element Ho, Element Cu, Element O]","{'La': 1.85, 'Sr': 0.11, 'Ho': 0.04, 'Cu': 1.0, 'O': 4.0}",Cuprates,5
La1.76Sr0.2Ho0.04Cu1O4,28.4,La1.76 Sr0.2 Ho0.04 Cu1 O4,"[Element La, Element Sr, Element Ho, Element Cu, Element O]","{'La': 1.76, 'Sr': 0.2, 'Ho': 0.04, 'Cu': 1.0, 'O': 4.0}",Cuprates,5
La1.71Sr0.25Ho0.04Cu1O4,10.1,La1.71 Sr0.25 Ho0.04 Cu1 O4,"[Element La, Element Sr, Element Ho, Element Cu, Element O]","{'La': 1.71, 'Sr': 0.25, 'Ho': 0.04, 'Cu': 1.0, 'O': 4.0}",Cuprates,5
Mg0.983Al0.017B1,35.9,Mg0.983 Al0.017 B1,"[Element Mg, Element Al, Element B]","{'Mg': 0.983, 'Al': 0.017, 'B': 1.0}",Other,3
Mg0.927Al0.073B1,33.0,Mg0.927 Al0.073 B1,"[Element Mg, Element Al, Element B]","{'Mg': 0.927, 'Al': 0.073, 'B': 1.0}",Other,3