chemical_formula,Tc,composition,elements,stoichiometry,Category,num_elements
Eu1Ba1.2Pr0.3Sr0.5Cu3O6.89,32.0,Eu1 Ba1.2 Pr0.3 Sr0.5 Cu3 O6.89,"[Element Eu, Element Ba, Element Pr, Element Sr, Element Cu, Element O]","{'Eu': 1.0, 'Ba': 1.2, 'Pr': 0.3, 'Sr': 0.5, 'Cu': 3.0, 'O': 6.89}",Cuprates,6
Eu0.9Sr0.1Ba1.6Pr0.1Cu3O6.58,32.0,Eu0.9 Sr0.1 Ba1.6 Pr0.1 Cu3 O6.58,"[Element Eu, Element Sr, Element Ba, Element Pr, Element Cu, Element O]","{'Eu': 0.9, 'Sr': 0.1, 'Ba': 1.6, 'Pr': 0.1, 'Cu': 3.0, 'O': 6.58}",Cuprates,6
Eu0.8Sr0.2Ba1.6Pr0.1Cu3O6.78,51.0,Eu0.8 Sr0.2 Ba1.6 Pr0.1 Cu3 O6.78,"[Element Eu, Element Sr, Element Ba, Element Pr, Element Cu, Element O]","{'Eu': 0.8, 'Sr': 0.2, 'Ba': 1.6, 'Pr': 0.1, 'Cu': 3.0, 'O': 6.78}",Cuprates,6
Eu0.7Sr0.3Ba1.6Pr0.1Cu3O6.91,54.0,Eu0.7 Sr0.3 Ba1.6 Pr0.1 Cu3 O6.91,"[Element Eu, Element Sr, Element Ba, Element Pr, Element Cu, Element O]","{'Eu': 0.7, 'Sr': 0.3, 'Ba': 1.6, 'Pr': 0.1, 'Cu': 3.0, 'O': 6.91}",Cuprates,6
Eu0.6Sr0.4Ba1.6Pr0.1Cu3O7.06,50.0,Eu0.6 Sr0.4 Ba1.6 Pr0.1 Cu3 O7.06,"[Element Eu, Element Sr, Element Ba, Element Pr, Element Cu, Element O]","{'Eu': 0.6, 'Sr': 0.4, 'Ba': 1.6, 'Pr': 0.1, 'Cu': 3.0, 'O': 7.06}",Cuprates,6
Eu0.5Sr0.5Ba1.6Pr0.1Cu3O7.07,42.0,Eu0.5 Sr0.5 Ba1.6 Pr0.1 Cu3 O7.07,"[Element Eu, Element Sr, Element Ba, Element Pr, Element Cu, Element O]","{'Eu': 0.5, 'Sr': 0.5, 'Ba': 1.6, 'Pr': 0.1, 'Cu': 3.0, 'O': 7.07}",Cuprates,6
K0.9La0.1Bi1O3,5.74,K0.9 La0.1 Bi1 O3,"[Element K, Element La, Element Bi, Element O]","{'K': 0.9, 'La': 0.1, 'Bi': 1.0, 'O': 3.0}",Other,4
K0.85La0.15Bi1O3,10.25,K0.85 La0.15 Bi1 O3,"[Element K, Element La, Element Bi, Element O]","{'K': 0.85, 'La': 0.15, 'Bi': 1.0, 'O': 3.0}",Other,4
K0.8La0.2Bi1O3,12.2,K0.8 La0.2 Bi1 O3,"[Element K, Element La, Element Bi, Element O]","{'K': 0.8, 'La': 0.2, 'Bi': 1.0, 'O': 3.0}",Other,4
K0.75La0.25Bi1O3,12.2,K0.75 La0.25 Bi1 O3,"[Element K, Element La, Element Bi, Element O]","{'K': 0.75, 'La': 0.25, 'Bi': 1.0, 'O': 3.0}",Other,4
K0.95Bi1.05O3,6.0,K0.95 Bi1.05 O3,"[Element K, Element Bi, Element O]","{'K': 0.95, 'Bi': 1.05, 'O': 3.0}",Other,3
K0.9Bi1.1O3,6.5,K0.9 Bi1.1 O3,"[Element K, Element Bi, Element O]","{'K': 0.9, 'Bi': 1.1, 'O': 3.0}",Other,3
K0.85Bi1.15O3,7.4,K0.85 Bi1.15 O3,"[Element K, Element Bi, Element O]","{'K': 0.85, 'Bi': 1.15, 'O': 3.0}",Other,3
K0.8Bi1.2O3,8.7,K0.8 Bi1.2 O3,"[Element K, Element Bi, Element O]","{'K': 0.8, 'Bi': 1.2, 'O': 3.0}",Other,3
K0.75Ca0.25Bi1O3,8.7,K0.75 Ca0.25 Bi1 O3,"[Element K, Element Ca, Element Bi, Element O]","{'K': 0.75, 'Ca': 0.25, 'Bi': 1.0, 'O': 3.0}",Other,4
Rb1Bi1O3,11.0,Rb1 Bi1 O3,"[Element Rb, Element Bi, Element O]","{'Rb': 1.0, 'Bi': 1.0, 'O': 3.0}",Other,3
Rb0.9Bi1.1O3,11.0,Rb0.9 Bi1.1 O3,"[Element Rb, Element Bi, Element O]","{'Rb': 0.9, 'Bi': 1.1, 'O': 3.0}",Other,3
Rb0.7Bi1.3O3,11.0,Rb0.7 Bi1.3 O3,"[Element Rb, Element Bi, Element O]","{'Rb': 0.7, 'Bi': 1.3, 'O': 3.0}",Other,3
Rb0.6Bi1.4O3,11.0,Rb0.6 Bi1.4 O3,"[Element Rb, Element Bi, Element O]","{'Rb': 0.6, 'Bi': 1.4, 'O': 3.0}",Other,3
K1Bi1O3,10.2,K1 Bi1 O3,"[Element K, Element Bi, Element O]","{'K': 1.0, 'Bi': 1.0, 'O': 3.0}",Other,3
K1.1Bi1O3,8.8,K1.1 Bi1 O3,"[Element K, Element Bi, Element O]","{'K': 1.1, 'Bi': 1.0, 'O': 3.0}",Other,3
Eu0.7Ca0.3Ba2Cu3O6.13,26.0,Eu0.7 Ca0.3 Ba2 Cu3 O6.13,"[Element Eu, Element Ca, Element Ba, Element Cu, Element O]","{'Eu': 0.7, 'Ca': 0.3, 'Ba': 2.0, 'Cu': 3.0, 'O': 6.13}",Cuprates,5
Ca14Cu24O40.93,8.0,Ca14 Cu24 O40.93,"[Element Ca, Element Cu, Element O]","{'Ca': 14.0, 'Cu': 24.0, 'O': 40.93}",Cuprates,3
Hg0.85Mo0.15Sr2Cu1O4,66.0,Hg0.85 Mo0.15 Sr2 Cu1 O4,"[Element Hg, Element Mo, Element Sr, Element Cu, Element O]","{'Hg': 0.85, 'Mo': 0.15, 'Sr': 2.0, 'Cu': 1.0, 'O': 4.0}",Cuprates,5
Hg0.75Mo0.25Sr2Cu1O4,50.0,Hg0.75 Mo0.25 Sr2 Cu1 O4,"[Element Hg, Element Mo, Element Sr, Element Cu, Element O]","{'Hg': 0.75, 'Mo': 0.25, 'Sr': 2.0, 'Cu': 1.0, 'O': 4.0}",Cuprates,5
Hg0.7Mo0.3Sr2Cu1O4,36.0,Hg0.7 Mo0.3 Sr2 Cu1 O4,"[Element Hg, Element Mo, Element Sr, Element Cu, Element O]","{'Hg': 0.7, 'Mo': 0.3, 'Sr': 2.0, 'Cu': 1.0, 'O': 4.0}",Cuprates,5
La1.985Sr0.015Cu1O4.024,16.0,La1.985 Sr0.015 Cu1 O4.024,"[Element La, Element Sr, Element Cu, Element O]","{'La': 1.985, 'Sr': 0.015, 'Cu': 1.0, 'O': 4.024}",Cuprates,4
La1.985Sr0.015Cu1O4.032,26.0,La1.985 Sr0.015 Cu1 O4.032,"[Element La, Element Sr, Element Cu, Element O]","{'La': 1.985, 'Sr': 0.015, 'Cu': 1.0, 'O': 4.032}",Cuprates,4
Pr1.85Ce0.15Cu1O3.97,20.0,Pr1.85 Ce0.15 Cu1 O3.97,"[Element Pr, Element Ce, Element Cu, Element O]","{'Pr': 1.85, 'Ce': 0.15, 'Cu': 1.0, 'O': 3.97}",Cuprates,4
C0.9N0.1Sr2Cu1O5.35,13.0,C0.9 N0.1 Sr2 Cu1 O5.35,"[Element C, Element N, Element Sr, Element Cu, Element O]","{'C': 0.9, 'N': 0.1, 'Sr': 2.0, 'Cu': 1.0, 'O': 5.35}",Cuprates,5
C0.8N0.2Sr2Cu1O5.3,33.0,C0.8 N0.2 Sr2 Cu1 O5.3,"[Element C, Element N, Element Sr, Element Cu, Element O]","{'C': 0.8, 'N': 0.2, 'Sr': 2.0, 'Cu': 1.0, 'O': 5.3}",Cuprates,5
C0.8N0.2Sr2Cu1O5.35,31.0,C0.8 N0.2 Sr2 Cu1 O5.35,"[Element C, Element N, Element Sr, Element Cu, Element O]","{'C': 0.8, 'N': 0.2, 'Sr': 2.0, 'Cu': 1.0, 'O': 5.35}",Cuprates,5
C0.8N0.2Sr2Cu1O5.45,31.0,C0.8 N0.2 Sr2 Cu1 O5.45,"[Element C, Element N, Element Sr, Element Cu, Element O]","{'C': 0.8, 'N': 0.2, 'Sr': 2.0, 'Cu': 1.0, 'O': 5.45}",Cuprates,5
C0.7N0.3Sr2Cu1O5.35,35.0,C0.7 N0.3 Sr2 Cu1 O5.35,"[Element C, Element N, Element Sr, Element Cu, Element O]","{'C': 0.7, 'N': 0.3, 'Sr': 2.0, 'Cu': 1.0, 'O': 5.35}",Cuprates,5
C0.7N0.3Sr2Cu1O5.45,31.0,C0.7 N0.3 Sr2 Cu1 O5.45,"[Element C, Element N, Element Sr, Element Cu, Element O]","{'C': 0.7, 'N': 0.3, 'Sr': 2.0, 'Cu': 1.0, 'O': 5.45}",Cuprates,5
C0.7N0.3Sr2Cu1O5.55,31.0,C0.7 N0.3 Sr2 Cu1 O5.55,"[Element C, Element N, Element Sr, Element Cu, Element O]","{'C': 0.7, 'N': 0.3, 'Sr': 2.0, 'Cu': 1.0, 'O': 5.55}",Cuprates,5
Li2.6Ti1.7O4,11.4,Li2.6 Ti1.7 O4,"[Element Li, Element Ti, Element O]","{'Li': 2.6, 'Ti': 1.7, 'O': 4.0}",Other,3
Li2.6Ti1.9O4,11.2,Li2.6 Ti1.9 O4,"[Element Li, Element Ti, Element O]","{'Li': 2.6, 'Ti': 1.9, 'O': 4.0}",Other,3
Li2.6Ti2.7O4,10.9,Li2.6 Ti2.7 O4,"[Element Li, Element Ti, Element O]","{'Li': 2.6, 'Ti': 2.7, 'O': 4.0}",Other,3
K1Ca2Nb3O10,1.0,K1 Ca2 Nb3 O10,"[Element K, Element Ca, Element Nb, Element O]","{'K': 1.0, 'Ca': 2.0, 'Nb': 3.0, 'O': 10.0}",Other,4
Sm1.85Ce0.15Cu1O3.97,21.8,Sm1.85 Ce0.15 Cu1 O3.97,"[Element Sm, Element Ce, Element Cu, Element O]","{'Sm': 1.85, 'Ce': 0.15, 'Cu': 1.0, 'O': 3.97}",Cuprates,4
Li0.34Rb1Ca2Nb3O10,3.54,Li0.34 Rb1 Ca2 Nb3 O10,"[Element Li, Element Rb, Element Ca, Element Nb, Element O]","{'Li': 0.34, 'Rb': 1.0, 'Ca': 2.0, 'Nb': 3.0, 'O': 10.0}",Other,5
Li0.46Rb1Ca2Nb3O10,3.54,Li0.46 Rb1 Ca2 Nb3 O10,"[Element Li, Element Rb, Element Ca, Element Nb, Element O]","{'Li': 0.46, 'Rb': 1.0, 'Ca': 2.0, 'Nb': 3.0, 'O': 10.0}",Other,5
Li0.62Rb1Ca2Nb3O10,2.71,Li0.62 Rb1 Ca2 Nb3 O10,"[Element Li, Element Rb, Element Ca, Element Nb, Element O]","{'Li': 0.62, 'Rb': 1.0, 'Ca': 2.0, 'Nb': 3.0, 'O': 10.0}",Other,5
Li0.34Rb1Sr2Nb3O10,6.03,Li0.34 Rb1 Sr2 Nb3 O10,"[Element Li, Element Rb, Element Sr, Element Nb, Element O]","{'Li': 0.34, 'Rb': 1.0, 'Sr': 2.0, 'Nb': 3.0, 'O': 10.0}",Other,5
Li0.34K1Ca2Nb3O10,5.39,Li0.34 K1 Ca2 Nb3 O10,"[Element Li, Element K, Element Ca, Element Nb, Element O]","{'Li': 0.34, 'K': 1.0, 'Ca': 2.0, 'Nb': 3.0, 'O': 10.0}",Other,5
Li0.34Cs1Ca2Nb3O10,5.4,Li0.34 Cs1 Ca2 Nb3 O10,"[Element Li, Element Cs, Element Ca, Element Nb, Element O]","{'Li': 0.34, 'Cs': 1.0, 'Ca': 2.0, 'Nb': 3.0, 'O': 10.0}",Other,5
Li0.46Cs1Ca2Nb3O10,5.31,Li0.46 Cs1 Ca2 Nb3 O10,"[Element Li, Element Cs, Element Ca, Element Nb, Element O]","{'Li': 0.46, 'Cs': 1.0, 'Ca': 2.0, 'Nb': 3.0, 'O': 10.0}",Other,5
Li0.62Cs1Ca2Nb3O10,4.71,Li0.62 Cs1 Ca2 Nb3 O10,"[Element Li, Element Cs, Element Ca, Element Nb, Element O]","{'Li': 0.62, 'Cs': 1.0, 'Ca': 2.0, 'Nb': 3.0, 'O': 10.0}",Other,5
Li0.28Cs1Ca2Nb3O10,5.51,Li0.28 Cs1 Ca2 Nb3 O10,"[Element Li, Element Cs, Element Ca, Element Nb, Element O]","{'Li': 0.28, 'Cs': 1.0, 'Ca': 2.0, 'Nb': 3.0, 'O': 10.0}",Other,5
Hg1Ba2Cu1O4.032,36.0,Hg1 Ba2 Cu1 O4.032,"[Element Hg, Element Ba, Element Cu, Element O]","{'Hg': 1.0, 'Ba': 2.0, 'Cu': 1.0, 'O': 4.032}",Cuprates,4
Hg1Ba2Cu1O4.033,48.0,Hg1 Ba2 Cu1 O4.033,"[Element Hg, Element Ba, Element Cu, Element O]","{'Hg': 1.0, 'Ba': 2.0, 'Cu': 1.0, 'O': 4.033}",Cuprates,4
Hg1Ba2Cu1O4.052,82.0,Hg1 Ba2 Cu1 O4.052,"[Element Hg, Element Ba, Element Cu, Element O]","{'Hg': 1.0, 'Ba': 2.0, 'Cu': 1.0, 'O': 4.052}",Cuprates,4
Hg1Ba2Cu1O4.058,89.0,Hg1 Ba2 Cu1 O4.058,"[Element Hg, Element Ba, Element Cu, Element O]","{'Hg': 1.0, 'Ba': 2.0, 'Cu': 1.0, 'O': 4.058}",Cuprates,4
Hg1Ba2Cu1O4.047,95.0,Hg1 Ba2 Cu1 O4.047,"[Element Hg, Element Ba, Element Cu, Element O]","{'Hg': 1.0, 'Ba': 2.0, 'Cu': 1.0, 'O': 4.047}",Cuprates,4
Hg1Ba2Cu1O4.081,98.0,Hg1 Ba2 Cu1 O4.081,"[Element Hg, Element Ba, Element Cu, Element O]","{'Hg': 1.0, 'Ba': 2.0, 'Cu': 1.0, 'O': 4.081}",Cuprates,4
La1.875Ba0.065Sr0.06Cu1O4,10.4,La1.875 Ba0.065 Sr0.06 Cu1 O4,"[Element La, Element Ba, Element Sr, Element Cu, Element O]","{'La': 1.875, 'Ba': 0.065, 'Sr': 0.06, 'Cu': 1.0, 'O': 4.0}",Cuprates,5
La1.875Ba0.04Sr0.085Cu1O4,31.7,La1.875 Ba0.04 Sr0.085 Cu1 O4,"[Element La, Element Ba, Element Sr, Element Cu, Element O]","{'La': 1.875, 'Ba': 0.04, 'Sr': 0.085, 'Cu': 1.0, 'O': 4.0}",Cuprates,5
La1.875Ba0.005Sr0.12Cu1O4,31.1,La1.875 Ba0.005 Sr0.12 Cu1 O4,"[Element La, Element Ba, Element Sr, Element Cu, Element O]","{'La': 1.875, 'Ba': 0.005, 'Sr': 0.12, 'Cu': 1.0, 'O': 4.0}",Cuprates,5
Ba0.6K0.4Bi0.99Pr0.01O3,26.4,Ba0.6 K0.4 Bi0.99 Pr0.01 O3,"[Element Ba, Element K, Element Bi, Element Pr, Element O]","{'Ba': 0.6, 'K': 0.4, 'Bi': 0.99, 'Pr': 0.01, 'O': 3.0}",Other,5
Ba0.6K0.4Bi0.979Pr0.021O3,23.5,Ba0.6 K0.4 Bi0.979 Pr0.021 O3,"[Element Ba, Element K, Element Bi, Element Pr, Element O]","{'Ba': 0.6, 'K': 0.4, 'Bi': 0.979, 'Pr': 0.021, 'O': 3.0}",Other,5
Ba0.6K0.4Bi0.969Pr0.031O3,18.4,Ba0.6 K0.4 Bi0.969 Pr0.031 O3,"[Element Ba, Element K, Element Bi, Element Pr, Element O]","{'Ba': 0.6, 'K': 0.4, 'Bi': 0.969, 'Pr': 0.031, 'O': 3.0}",Other,5
Ba0.6K0.4Bi0.955Pr0.045O3,14.4,Ba0.6 K0.4 Bi0.955 Pr0.045 O3,"[Element Ba, Element K, Element Bi, Element Pr, Element O]","{'Ba': 0.6, 'K': 0.4, 'Bi': 0.955, 'Pr': 0.045, 'O': 3.0}",Other,5
Ba0.6K0.4Bi0.933Pr0.067O3,11.1,Ba0.6 K0.4 Bi0.933 Pr0.067 O3,"[Element Ba, Element K, Element Bi, Element Pr, Element O]","{'Ba': 0.6, 'K': 0.4, 'Bi': 0.933, 'Pr': 0.067, 'O': 3.0}",Other,5
Ba0.6K0.4Bi0.925Pr0.075O3,4.5,Ba0.6 K0.4 Bi0.925 Pr0.075 O3,"[Element Ba, Element K, Element Bi, Element Pr, Element O]","{'Ba': 0.6, 'K': 0.4, 'Bi': 0.925, 'Pr': 0.075, 'O': 3.0}",Other,5
Ba0.47K0.53Bi1O3,11.0,Ba0.47 K0.53 Bi1 O3,"[Element Ba, Element K, Element Bi, Element O]","{'Ba': 0.47, 'K': 0.53, 'Bi': 1.0, 'O': 3.0}",Other,4
Ba0.47K0.53Bi0.995Pr0.005O3,9.0,Ba0.47 K0.53 Bi0.995 Pr0.005 O3,"[Element Ba, Element K, Element Bi, Element Pr, Element O]","{'Ba': 0.47, 'K': 0.53, 'Bi': 0.995, 'Pr': 0.005, 'O': 3.0}",Other,5
Ba0.47K0.53Bi0.99Pr0.01O3,6.4,Ba0.47 K0.53 Bi0.99 Pr0.01 O3,"[Element Ba, Element K, Element Bi, Element Pr, Element O]","{'Ba': 0.47, 'K': 0.53, 'Bi': 0.99, 'Pr': 0.01, 'O': 3.0}",Other,5
Ba0.47K0.53Bi0.985Pr0.015O3,5.2,Ba0.47 K0.53 Bi0.985 Pr0.015 O3,"[Element Ba, Element K, Element Bi, Element Pr, Element O]","{'Ba': 0.47, 'K': 0.53, 'Bi': 0.985, 'Pr': 0.015, 'O': 3.0}",Other,5
Ba0.47K0.53Bi0.979Pr0.021O3,4.5,Ba0.47 K0.53 Bi0.979 Pr0.021 O3,"[Element Ba, Element K, Element Bi, Element Pr, Element O]","{'Ba': 0.47, 'K': 0.53, 'Bi': 0.979, 'Pr': 0.021, 'O': 3.0}",Other,5
Ba0.47K0.53Bi0.972Pr0.028O3,4.0,Ba0.47 K0.53 Bi0.972 Pr0.028 O3,"[Element Ba, Element K, Element Bi, Element Pr, Element O]","{'Ba': 0.47, 'K': 0.53, 'Bi': 0.972, 'Pr': 0.028, 'O': 3.0}",Other,5
Ba0.47K0.53Bi0.965Pr0.035O3,2.97,Ba0.47 K0.53 Bi0.965 Pr0.035 O3,"[Element Ba, Element K, Element Bi, Element Pr, Element O]","{'Ba': 0.47, 'K': 0.53, 'Bi': 0.965, 'Pr': 0.035, 'O': 3.0}",Other,5
Sr2Ca12Cu24O41,5.0,Sr2 Ca12 Cu24 O41,"[Element Sr, Element Ca, Element Cu, Element O]","{'Sr': 2.0, 'Ca': 12.0, 'Cu': 24.0, 'O': 41.0}",Cuprates,4
La1Ba1.5Sr0.5Cu3O6.902,54.0,La1 Ba1.5 Sr0.5 Cu3 O6.902,"[Element La, Element Ba, Element Sr, Element Cu, Element O]","{'La': 1.0, 'Ba': 1.5, 'Sr': 0.5, 'Cu': 3.0, 'O': 6.902}",Cuprates,5
La0.9Pr0.1Ba1.5Sr0.5Cu3O6.904,44.0,La0.9 Pr0.1 Ba1.5 Sr0.5 Cu3 O6.904,"[Element La, Element Pr, Element Ba, Element Sr, Element Cu, Element O]","{'La': 0.9, 'Pr': 0.1, 'Ba': 1.5, 'Sr': 0.5, 'Cu': 3.0, 'O': 6.904}",Cuprates,6
La0.8Pr0.2Ba1.5Sr0.5Cu3O6.906,24.0,La0.8 Pr0.2 Ba1.5 Sr0.5 Cu3 O6.906,"[Element La, Element Pr, Element Ba, Element Sr, Element Cu, Element O]","{'La': 0.8, 'Pr': 0.2, 'Ba': 1.5, 'Sr': 0.5, 'Cu': 3.0, 'O': 6.906}",Cuprates,6
La0.95Ca0.05Ba1.5Sr0.5Cu3O6.878,66.0,La0.95 Ca0.05 Ba1.5 Sr0.5 Cu3 O6.878,"[Element La, Element Ca, Element Ba, Element Sr, Element Cu, Element O]","{'La': 0.95, 'Ca': 0.05, 'Ba': 1.5, 'Sr': 0.5, 'Cu': 3.0, 'O': 6.878}",Cuprates,6
La0.9Ca0.1Ba1.5Sr0.5Cu3O6.847,68.0,La0.9 Ca0.1 Ba1.5 Sr0.5 Cu3 O6.847,"[Element La, Element Ca, Element Ba, Element Sr, Element Cu, Element O]","{'La': 0.9, 'Ca': 0.1, 'Ba': 1.5, 'Sr': 0.5, 'Cu': 3.0, 'O': 6.847}",Cuprates,6
La0.85Ca0.15Ba1.5Sr0.5Cu3O6.819,71.0,La0.85 Ca0.15 Ba1.5 Sr0.5 Cu3 O6.819,"[Element La, Element Ca, Element Ba, Element Sr, Element Cu, Element O]","{'La': 0.85, 'Ca': 0.15, 'Ba': 1.5, 'Sr': 0.5, 'Cu': 3.0, 'O': 6.819}",Cuprates,6
La0.8Ca0.2Ba1.5Sr0.5Cu3O6.794,73.0,La0.8 Ca0.2 Ba1.5 Sr0.5 Cu3 O6.794,"[Element La, Element Ca, Element Ba, Element Sr, Element Cu, Element O]","{'La': 0.8, 'Ca': 0.2, 'Ba': 1.5, 'Sr': 0.5, 'Cu': 3.0, 'O': 6.794}",Cuprates,6
La0.85Ca0.05Pr0.1Ba1.5Sr0.5Cu3O6.865,50.0,La0.85 Ca0.05 Pr0.1 Ba1.5 Sr0.5 Cu3 O6.865,"[Element La, Element Ca, Element Pr, Element Ba, Element Sr, Element Cu, Element O]","{'La': 0.85, 'Ca': 0.05, 'Pr': 0.1, 'Ba': 1.5, 'Sr': 0.5, 'Cu': 3.0, 'O': 6.865}",Cuprates,7
La0.8Ca0.1Pr0.1Ba1.5Sr0.5Cu3O6.856,56.0,La0.8 Ca0.1 Pr0.1 Ba1.5 Sr0.5 Cu3 O6.856,"[Element La, Element Ca, Element Pr, Element Ba, Element Sr, Element Cu, Element O]","{'La': 0.8, 'Ca': 0.1, 'Pr': 0.1, 'Ba': 1.5, 'Sr': 0.5, 'Cu': 3.0, 'O': 6.856}",Cuprates,7
La0.75Ca0.15Pr0.1Ba1.5Sr0.5Cu3O6.845,62.0,La0.75 Ca0.15 Pr0.1 Ba1.5 Sr0.5 Cu3 O6.845,"[Element La, Element Ca, Element Pr, Element Ba, Element Sr, Element Cu, Element O]","{'La': 0.75, 'Ca': 0.15, 'Pr': 0.1, 'Ba': 1.5, 'Sr': 0.5, 'Cu': 3.0, 'O': 6.845}",Cuprates,7
La0.7Ca0.2Pr0.1Ba1.5Sr0.5Cu3O6.809,63.0,La0.7 Ca0.2 Pr0.1 Ba1.5 Sr0.5 Cu3 O6.809,"[Element La, Element Ca, Element Pr, Element Ba, Element Sr, Element Cu, Element O]","{'La': 0.7, 'Ca': 0.2, 'Pr': 0.1, 'Ba': 1.5, 'Sr': 0.5, 'Cu': 3.0, 'O': 6.809}",Cuprates,7
La0.75Ca0.05Pr0.2Ba1.5Sr0.5Cu3O6.886,33.0,La0.75 Ca0.05 Pr0.2 Ba1.5 Sr0.5 Cu3 O6.886,"[Element La, Element Ca, Element Pr, Element Ba, Element Sr, Element Cu, Element O]","{'La': 0.75, 'Ca': 0.05, 'Pr': 0.2, 'Ba': 1.5, 'Sr': 0.5, 'Cu': 3.0, 'O': 6.886}",Cuprates,7
La0.7Ca0.1Pr0.2Ba1.5Sr0.5Cu3O6.862,40.0,La0.7 Ca0.1 Pr0.2 Ba1.5 Sr0.5 Cu3 O6.862,"[Element La, Element Ca, Element Pr, Element Ba, Element Sr, Element Cu, Element O]","{'La': 0.7, 'Ca': 0.1, 'Pr': 0.2, 'Ba': 1.5, 'Sr': 0.5, 'Cu': 3.0, 'O': 6.862}",Cuprates,7
La0.65Ca0.15Pr0.2Ba1.5Sr0.5Cu3O6.84,45.0,La0.65 Ca0.15 Pr0.2 Ba1.5 Sr0.5 Cu3 O6.84,"[Element La, Element Ca, Element Pr, Element Ba, Element Sr, Element Cu, Element O]","{'La': 0.65, 'Ca': 0.15, 'Pr': 0.2, 'Ba': 1.5, 'Sr': 0.5, 'Cu': 3.0, 'O': 6.84}",Cuprates,7
La0.6Ca0.2Pr0.2Ba1.5Sr0.5Cu3O6.809,47.0,La0.6 Ca0.2 Pr0.2 Ba1.5 Sr0.5 Cu3 O6.809,"[Element La, Element Ca, Element Pr, Element Ba, Element Sr, Element Cu, Element O]","{'La': 0.6, 'Ca': 0.2, 'Pr': 0.2, 'Ba': 1.5, 'Sr': 0.5, 'Cu': 3.0, 'O': 6.809}",Cuprates,7
La0.65Ca0.05Pr0.3Ba1.5Sr0.5Cu3O6.896,14.0,La0.65 Ca0.05 Pr0.3 Ba1.5 Sr0.5 Cu3 O6.896,"[Element La, Element Ca, Element Pr, Element Ba, Element Sr, Element Cu, Element O]","{'La': 0.65, 'Ca': 0.05, 'Pr': 0.3, 'Ba': 1.5, 'Sr': 0.5, 'Cu': 3.0, 'O': 6.896}",Cuprates,7
La0.6Ca0.1Pr0.3Ba1.5Sr0.5Cu3O6.872,26.0,La0.6 Ca0.1 Pr0.3 Ba1.5 Sr0.5 Cu3 O6.872,"[Element La, Element Ca, Element Pr, Element Ba, Element Sr, Element Cu, Element O]","{'La': 0.6, 'Ca': 0.1, 'Pr': 0.3, 'Ba': 1.5, 'Sr': 0.5, 'Cu': 3.0, 'O': 6.872}",Cuprates,7
La0.55Ca0.15Pr0.3Ba1.5Sr0.5Cu3O6.851,27.0,La0.55 Ca0.15 Pr0.3 Ba1.5 Sr0.5 Cu3 O6.851,"[Element La, Element Ca, Element Pr, Element Ba, Element Sr, Element Cu, Element O]","{'La': 0.55, 'Ca': 0.15, 'Pr': 0.3, 'Ba': 1.5, 'Sr': 0.5, 'Cu': 3.0, 'O': 6.851}",Cuprates,7
La0.5Ca0.2Pr0.3Ba1.5Sr0.5Cu3O6.829,34.0,La0.5 Ca0.2 Pr0.3 Ba1.5 Sr0.5 Cu3 O6.829,"[Element La, Element Ca, Element Pr, Element Ba, Element Sr, Element Cu, Element O]","{'La': 0.5, 'Ca': 0.2, 'Pr': 0.3, 'Ba': 1.5, 'Sr': 0.5, 'Cu': 3.0, 'O': 6.829}",Cuprates,7
Sr2Ho1Ru0.9Cu0.1O6,30.0,Sr2 Ho1 Ru0.9 Cu0.1 O6,"[Element Sr, Element Ho, Element Ru, Element Cu, Element O]","{'Sr': 2.0, 'Ho': 1.0, 'Ru': 0.9, 'Cu': 0.1, 'O': 6.0}",Cuprates,5
Bi2.1Sr1.8Ca1Cu1.96Co0.04O8,73.0,Bi2.1 Sr1.8 Ca1 Cu1.96 Co0.04 O8,"[Element Bi, Element Sr, Element Ca, Element Cu, Element Co, Element O]","{'Bi': 2.1, 'Sr': 1.8, 'Ca': 1.0, 'Cu': 1.96, 'Co': 0.04, 'O': 8.0}",Cuprates,6
La1.84Sr0.16Cu0.99Fe0.01O4,30.0,La1.84 Sr0.16 Cu0.99 Fe0.01 O4,"[Element La, Element Sr, Element Cu, Element Fe, Element O]","{'La': 1.84, 'Sr': 0.16, 'Cu': 0.99, 'Fe': 0.01, 'O': 4.0}",Cuprates,5
La1.85Sr0.15Cu1FeO4,39.9,La1.85 Sr0.15 Cu1 Fe1 O4,"[Element La, Element Sr, Element Cu, Element Fe, Element O]","{'La': 1.85, 'Sr': 0.15, 'Cu': 1.0, 'Fe': 1.0, 'O': 4.0}",Cuprates,5
La1.86Sr0.14Cu0.99Li0.01O4,38.25,La1.86 Sr0.14 Cu0.99 Li0.01 O4,"[Element La, Element Sr, Element Cu, Element Li, Element O]","{'La': 1.86, 'Sr': 0.14, 'Cu': 0.99, 'Li': 0.01, 'O': 4.0}",Cuprates,5
La1.87Sr0.13Cu0.98Li0.02O4,32.85,La1.87 Sr0.13 Cu0.98 Li0.02 O4,"[Element La, Element Sr, Element Cu, Element Li, Element O]","{'La': 1.87, 'Sr': 0.13, 'Cu': 0.98, 'Li': 0.02, 'O': 4.0}",Cuprates,5
La1.885Sr0.115Cu0.965Li0.035O4,26.5,La1.885 Sr0.115 Cu0.965 Li0.035 O4,"[Element La, Element Sr, Element Cu, Element Li, Element O]","{'La': 1.885, 'Sr': 0.115, 'Cu': 0.965, 'Li': 0.035, 'O': 4.0}",Cuprates,5
La1.9Sr0.1Cu0.95Li0.05O4,20.0,La1.9 Sr0.1 Cu0.95 Li0.05 O4,"[Element La, Element Sr, Element Cu, Element Li, Element O]","{'La': 1.9, 'Sr': 0.1, 'Cu': 0.95, 'Li': 0.05, 'O': 4.0}",Cuprates,5
Sr0.9La0.1Cu0.99Ni0.01O2,30.0,Sr0.9 La0.1 Cu0.99 Ni0.01 O2,"[Element Sr, Element La, Element Cu, Element Ni, Element O]","{'Sr': 0.9, 'La': 0.1, 'Cu': 0.99, 'Ni': 0.01, 'O': 2.0}",Cuprates,5
Bi2Sr2Cu1O6.09,10.0,Bi2 Sr2 Cu1 O6.09,"[Element Bi, Element Sr, Element Cu, Element O]","{'Bi': 2.0, 'Sr': 2.0, 'Cu': 1.0, 'O': 6.09}",Cuprates,4
Bi2Sr2Cu1O6.13,16.0,Bi2 Sr2 Cu1 O6.13,"[Element Bi, Element Sr, Element Cu, Element O]","{'Bi': 2.0, 'Sr': 2.0, 'Cu': 1.0, 'O': 6.13}",Cuprates,4
Bi2Sr2Cu1O6.14,14.0,Bi2 Sr2 Cu1 O6.14,"[Element Bi, Element Sr, Element Cu, Element O]","{'Bi': 2.0, 'Sr': 2.0, 'Cu': 1.0, 'O': 6.14}",Cuprates,4
Bi2Sr2Cu1O6.16,10.0,Bi2 Sr2 Cu1 O6.16,"[Element Bi, Element Sr, Element Cu, Element O]","{'Bi': 2.0, 'Sr': 2.0, 'Cu': 1.0, 'O': 6.16}",Cuprates,4
Bi2Sr2Cu1O6.175,7.0,Bi2 Sr2 Cu1 O6.175,"[Element Bi, Element Sr, Element Cu, Element O]","{'Bi': 2.0, 'Sr': 2.0, 'Cu': 1.0, 'O': 6.175}",Cuprates,4
Bi2Sr2Cu1O6.18,3.0,Bi2 Sr2 Cu1 O6.18,"[Element Bi, Element Sr, Element Cu, Element O]","{'Bi': 2.0, 'Sr': 2.0, 'Cu': 1.0, 'O': 6.18}",Cuprates,4
Eu1.6Ce0.4Sr2Ru1Cu2O10,32.0,Eu1.6 Ce0.4 Sr2 Ru1 Cu2 O10,"[Element Eu, Element Ce, Element Sr, Element Ru, Element Cu, Element O]","{'Eu': 1.6, 'Ce': 0.4, 'Sr': 2.0, 'Ru': 1.0, 'Cu': 2.0, 'O': 10.0}",Cuprates,6
Eu1.4Ce0.6Sr2Ru1Cu2O10,35.0,Eu1.4 Ce0.6 Sr2 Ru1 Cu2 O10,"[Element Eu, Element Ce, Element Sr, Element Ru, Element Cu, Element O]","{'Eu': 1.4, 'Ce': 0.6, 'Sr': 2.0, 'Ru': 1.0, 'Cu': 2.0, 'O': 10.0}",Cuprates,6