chemical_formula,Tc,composition,elements,stoichiometry,Category,num_elements
Bi3Sr1,5.7,Bi3 Sr1,"[Element Bi, Element Sr]","{'Bi': 3.0, 'Sr': 1.0}",Other,2
Bi0.4Sn0.6,7.34,Bi0.4 Sn0.6,"[Element Bi, Element Sn]","{'Bi': 0.4, 'Sn': 0.6}",Other,2
Bi0.5Sn0.5,0.788,Bi0.5 Sn0.5,"[Element Bi, Element Sn]","{'Bi': 0.5, 'Sn': 0.5}",Other,2
Bi0.6Sn0.4,7.0,Bi0.6 Sn0.4,"[Element Bi, Element Sn]","{'Bi': 0.6, 'Sn': 0.4}",Other,2
Bi0.57Sn0.43,2.25,Bi0.57 Sn0.43,"[Element Bi, Element Sn]","{'Bi': 0.57, 'Sn': 0.43}",Other,2
Bi3Sn1,3.77,Bi3 Sn1,"[Element Bi, Element Sn]","{'Bi': 3.0, 'Sn': 1.0}",Other,2
Bi0.85Tl0.15,6.23,Bi0.85 Tl0.15,"[Element Bi, Element Tl]","{'Bi': 0.85, 'Tl': 0.15}",Other,2
Bi0.26Tl0.74,4.4,Bi0.26 Tl0.74,"[Element Bi, Element Tl]","{'Bi': 0.26, 'Tl': 0.74}",Other,2
Bi5Tl3,6.4,Bi5 Tl3,"[Element Bi, Element Tl]","{'Bi': 5.0, 'Tl': 3.0}",Other,2
Bi0.86Tl0.14,6.5,Bi0.86 Tl0.14,"[Element Bi, Element Tl]","{'Bi': 0.86, 'Tl': 0.14}",Other,2
C3Er0.2Th1.8,8.2,C3 Er0.2 Th1.8,"[Element C, Element Er, Element Th]","{'C': 3.0, 'Er': 0.2, 'Th': 1.8}",Other,3
C3Er0.1Th1.9,6.8,C3 Er0.1 Th1.9,"[Element C, Element Er, Element Th]","{'C': 3.0, 'Er': 0.1, 'Th': 1.9}",Other,3
C3Er1Th1,4.6,C3 Er1 Th1,"[Element C, Element Er, Element Th]","{'C': 3.0, 'Er': 1.0, 'Th': 1.0}",Other,3
C3Er0.8Th1.2,7.0,C3 Er0.8 Th1.2,"[Element C, Element Er, Element Th]","{'C': 3.0, 'Er': 0.8, 'Th': 1.2}",Other,3
C3Er0.6Th1.4,8.1,C3 Er0.6 Th1.4,"[Element C, Element Er, Element Th]","{'C': 3.0, 'Er': 0.6, 'Th': 1.4}",Other,3
C3Er0.4Th1.6,8.2,C3 Er0.4 Th1.6,"[Element C, Element Er, Element Th]","{'C': 3.0, 'Er': 0.4, 'Th': 1.6}",Other,3
C8Cs1,0.135,C8 Cs1,"[Element C, Element Cs]","{'C': 8.0, 'Cs': 1.0}",Other,2
C1Hf0.15Mo0.85,9.0,C1 Hf0.15 Mo0.85,"[Element C, Element Hf, Element Mo]","{'C': 1.0, 'Hf': 0.15, 'Mo': 0.85}",Other,3
C0.75Hf0.05Mo0.95,14.2,C0.75 Hf0.05 Mo0.95,"[Element C, Element Hf, Element Mo]","{'C': 0.75, 'Hf': 0.05, 'Mo': 0.95}",Other,3
C1.5Ge3La5,3.3,C1.5 Ge3 La5,"[Element C, Element Ge, Element La]","{'C': 1.5, 'Ge': 3.0, 'La': 5.0}",Other,3
C1Ga1Mo2,4.1,C1 Ga1 Mo2,"[Element C, Element Ga, Element Mo]","{'C': 1.0, 'Ga': 1.0, 'Mo': 2.0}",Other,3
C1Ir1Mo3,3.2,C1 Ir1 Mo3,"[Element C, Element Ir, Element Mo]","{'C': 1.0, 'Ir': 1.0, 'Mo': 3.0}",Other,3
C1Ir2Mo3,1.8,C1 Ir2 Mo3,"[Element C, Element Ir, Element Mo]","{'C': 1.0, 'Ir': 2.0, 'Mo': 3.0}",Other,3
C3Ho0.2Th1.8,5.4,C3 Ho0.2 Th1.8,"[Element C, Element Ho, Element Th]","{'C': 3.0, 'Ho': 0.2, 'Th': 1.8}",Other,3
C3Ho0.4Th1.6,5.5,C3 Ho0.4 Th1.6,"[Element C, Element Ho, Element Th]","{'C': 3.0, 'Ho': 0.4, 'Th': 1.6}",Other,3
C3Ho0.6Th1.4,5.2,C3 Ho0.6 Th1.4,"[Element C, Element Ho, Element Th]","{'C': 3.0, 'Ho': 0.6, 'Th': 1.4}",Other,3
C1.45La0.5Th0.5,14.2,C1.45 La0.5 Th0.5,"[Element C, Element La, Element Th]","{'C': 1.45, 'La': 0.5, 'Th': 0.5}",Other,3
C13La1,4.8,C13 La1,"[Element C, Element La]","{'C': 13.0, 'La': 1.0}",Other,2
C1.3La1,8.3,C1.3 La1,"[Element C, Element La]","{'C': 1.3, 'La': 1.0}",Other,2
C1.58La1,9.6,C1.58 La1,"[Element C, Element La]","{'C': 1.58, 'La': 1.0}",Other,2
C2La1,1.44,C2 La1,"[Element C, Element La]","{'C': 2.0, 'La': 1.0}",Other,2
C1Ir2W3,2.1,C1 Ir2 W3,"[Element C, Element Ir, Element W]","{'C': 1.0, 'Ir': 2.0, 'W': 3.0}",Other,3
C0.69Mo1,12.1,C0.69 Mo1,"[Element C, Element Mo]","{'C': 0.69, 'Mo': 1.0}",Other,2
C1Mo1,9.26,C1 Mo1,"[Element C, Element Mo]","{'C': 1.0, 'Mo': 1.0}",Other,2
C2Lu1,3.33,C2 Lu1,"[Element C, Element Lu]","{'C': 2.0, 'Lu': 1.0}",Other,2
C1.5La0.9Th0.1,12.9,C1.5 La0.9 Th0.1,"[Element C, Element La, Element Th]","{'C': 1.5, 'La': 0.9, 'Th': 0.1}",Other,3
C1Mo0.83Ti0.17,10.2,C1 Mo0.83 Ti0.17,"[Element C, Element Mo, Element Ti]","{'C': 1.0, 'Mo': 0.83, 'Ti': 0.17}",Other,3
C1Mo0.85Ta0.15,8.9,C1 Mo0.85 Ta0.15,"[Element C, Element Mo, Element Ta]","{'C': 1.0, 'Mo': 0.85, 'Ta': 0.15}",Other,3
C0.6Mo4.8Si0.3,7.6,C0.6 Mo4.8 Si0.3,"[Element C, Element Mo, Element Si]","{'C': 0.6, 'Mo': 4.8, 'Si': 0.3}",Other,3
C1Mo0.9Ru0.1,13.6,C1 Mo0.9 Ru0.1,"[Element C, Element Mo, Element Ru]","{'C': 1.0, 'Mo': 0.9, 'Ru': 0.1}",Other,3
C1Mo0.9Re0.1,13.8,C1 Mo0.9 Re0.1,"[Element C, Element Mo, Element Re]","{'C': 1.0, 'Mo': 0.9, 'Re': 0.1}",Other,3
C2Mo1Re1,3.8,C2 Mo1 Re1,"[Element C, Element Mo, Element Re]","{'C': 2.0, 'Mo': 1.0, 'Re': 1.0}",Other,3
C1Mo3Pt2,1.1,C1 Mo3 Pt2,"[Element C, Element Mo, Element Pt]","{'C': 1.0, 'Mo': 3.0, 'Pt': 2.0}",Other,3
C0.4Mo0.6,11.2,C0.4 Mo0.6,"[Element C, Element Mo]","{'C': 0.4, 'Mo': 0.6}",Other,2
C0.42Mo1,2.8,C0.42 Mo1,"[Element C, Element Mo]","{'C': 0.42, 'Mo': 1.0}",Other,2
C1Nb2,9.1,C1 Nb2,"[Element C, Element Nb]","{'C': 1.0, 'Nb': 2.0}",Other,2
C0.98Nb1,11.56,C0.98 Nb1,"[Element C, Element Nb]","{'C': 0.98, 'Nb': 1.0}",Other,2
C0.78N0.22Th1,5.6,C0.78 N0.22 Th1,"[Element C, Element N, Element Th]","{'C': 0.78, 'N': 0.22, 'Th': 1.0}",Other,3
C0.2N0.8Nb0.8V0.2,5.5,C0.2 N0.8 Nb0.8 V0.2,"[Element C, Element N, Element Nb, Element V]","{'C': 0.2, 'N': 0.8, 'Nb': 0.8, 'V': 0.2}",Other,4
C0.25N0.75Nb0.85Ti0.15,17.8,C0.25 N0.75 Nb0.85 Ti0.15,"[Element C, Element N, Element Nb, Element Ti]","{'C': 0.25, 'N': 0.75, 'Nb': 0.85, 'Ti': 0.15}",Other,4
C0.026N0.974Nb1,17.2,C0.026 N0.974 Nb1,"[Element C, Element N, Element Nb]","{'C': 0.026, 'N': 0.974, 'Nb': 1.0}",Other,3
C1N1Nb1,17.3,C1 N1 Nb1,"[Element C, Element N, Element Nb]","{'C': 1.0, 'N': 1.0, 'Nb': 1.0}",Other,3
C0.35N0.65Nb1,17.8,C0.35 N0.65 Nb1,"[Element C, Element N, Element Nb]","{'C': 0.35, 'N': 0.65, 'Nb': 1.0}",Other,3
C1Os2W3,2.9,C1 Os2 W3,"[Element C, Element Os, Element W]","{'C': 1.0, 'Os': 2.0, 'W': 3.0}",Other,3
C1Ru1,2.04,C1 Ru1,"[Element C, Element Ru]","{'C': 1.0, 'Ru': 1.0}",Other,2
C1Rh1,3.4,C1 Rh1,"[Element C, Element Rh]","{'C': 1.0, 'Rh': 1.0}",Other,2
C2Re1W1,3.8,C2 Re1 W1,"[Element C, Element Re, Element W]","{'C': 2.0, 'Re': 1.0, 'W': 1.0}",Other,3
C0.04Re0.96,1.98,C0.04 Re0.96,"[Element C, Element Re]","{'C': 0.04, 'Re': 0.96}",Other,2
C1Pt2W3,1.2,C1 Pt2 W3,"[Element C, Element Pt, Element W]","{'C': 1.0, 'Pt': 2.0, 'W': 3.0}",Other,3
C3Sc1.4Th0.6,5.4,C3 Sc1.4 Th0.6,"[Element C, Element Sc, Element Th]","{'C': 3.0, 'Sc': 1.4, 'Th': 0.6}",Other,3
C1.45Th1,4.1,C1.45 Th1,"[Element C, Element Th]","{'C': 1.45, 'Th': 1.0}",Other,2
C1Tc1,3.85,C1 Tc1,"[Element C, Element Tc]","{'C': 1.0, 'Tc': 1.0}",Other,2
C1Ta0.5W0.5,10.1,C1 Ta0.5 W0.5,"[Element C, Element Ta, Element W]","{'C': 1.0, 'Ta': 0.5, 'W': 0.5}",Other,3
C1Ta0.45W0.55,10.5,C1 Ta0.45 W0.55,"[Element C, Element Ta, Element W]","{'C': 1.0, 'Ta': 0.45, 'W': 0.55}",Other,3
C1Ta0.4Ti0.6,4.8,C1 Ta0.4 Ti0.6,"[Element C, Element Ta, Element Ti]","{'C': 1.0, 'Ta': 0.4, 'Ti': 0.6}",Other,3
C1Ta2,3.26,C1 Ta2,"[Element C, Element Ta]","{'C': 1.0, 'Ta': 2.0}",Other,2
C0.46W0.54,9.0,C0.46 W0.54,"[Element C, Element W]","{'C': 0.46, 'W': 0.54}",Other,2
C0.55W0.45,8.1,C0.55 W0.45,"[Element C, Element W]","{'C': 0.55, 'W': 0.45}",Other,2
C0.5W0.5,10.0,C0.5 W0.5,"[Element C, Element W]","{'C': 0.5, 'W': 0.5}",Other,2
Ca1Tl3,2.04,Ca1 Tl3,"[Element Ca, Element Tl]","{'Ca': 1.0, 'Tl': 3.0}",Other,2
Ca1Si2,1.58,Ca1 Si2,"[Element Ca, Element Si]","{'Ca': 1.0, 'Si': 2.0}",Other,2
Ca1Hg5,1.7,Ca1 Hg5,"[Element Ca, Element Hg]","{'Ca': 1.0, 'Hg': 5.0}",Other,2
Ca1Hg3,1.6,Ca1 Hg3,"[Element Ca, Element Hg]","{'Ca': 1.0, 'Hg': 3.0}",Other,2
Ca1Hg1,1.6,Ca1 Hg1,"[Element Ca, Element Hg]","{'Ca': 1.0, 'Hg': 1.0}",Other,2
Ce1Ir3,3.34,Ce1 Ir3,"[Element Ce, Element Ir]","{'Ce': 1.0, 'Ir': 3.0}",Other,2
Ce1Co1.67Rh0.33,0.47,Ce1 Co1.67 Rh0.33,"[Element Ce, Element Co, Element Rh]","{'Ce': 1.0, 'Co': 1.67, 'Rh': 0.33}",Other,3
Ce1Co1.67Ni0.33,0.46,Ce1 Co1.67 Ni0.33,"[Element Ce, Element Co, Element Ni]","{'Ce': 1.0, 'Co': 1.67, 'Ni': 0.33}",Other,3
Ce1Co2,1.5,Ce1 Co2,"[Element Ce, Element Co]","{'Ce': 1.0, 'Co': 2.0}",Other,2
Ce1Pt0.1Ru1.9,4.08,Ce1 Pt0.1 Ru1.9,"[Element Ce, Element Pt, Element Ru]","{'Ce': 1.0, 'Pt': 0.1, 'Ru': 1.9}",Other,3
Ce0.16La0.84,8.7,Ce0.16 La0.84,"[Element Ce, Element La]","{'Ce': 0.16, 'La': 0.84}",Other,2
Ce1Ir5,1.82,Ce1 Ir5,"[Element Ce, Element Ir]","{'Ce': 1.0, 'Ir': 5.0}",Other,2
Ce0.8Tb0.2Ru2,2.6,Ce0.8 Tb0.2 Ru2,"[Element Ce, Element Tb, Element Ru]","{'Ce': 0.8, 'Tb': 0.2, 'Ru': 2.0}",Other,3
Ce0.12Si1V2.88,15.32,Ce0.12 Si1 V2.88,"[Element Ce, Element Si, Element V]","{'Ce': 0.12, 'Si': 1.0, 'V': 2.88}",Other,3
Ce1Ru2Sc1,6.2,Ce1 Ru2 Sc1,"[Element Ce, Element Ru, Element Sc]","{'Ce': 1.0, 'Ru': 2.0, 'Sc': 1.0}",Other,3
Ce1Pt0.2Ru1.8,3.4,Ce1 Pt0.2 Ru1.8,"[Element Ce, Element Pt, Element Ru]","{'Ce': 1.0, 'Pt': 0.2, 'Ru': 1.8}",Other,3
Co1La3,4.28,Co1 La3,"[Element Co, Element La]","{'Co': 1.0, 'La': 3.0}",Other,2
Co0.004Ir0.996,0.046,Co0.004 Ir0.996,"[Element Co, Element Ir]","{'Co': 0.004, 'Ir': 0.996}",Other,2
Co0.03In0.97,3.95,Co0.03 In0.97,"[Element Co, Element In]","{'Co': 0.03, 'In': 0.97}",Other,2
Co1Hf2,0.56,Co1 Hf2,"[Element Co, Element Hf]","{'Co': 1.0, 'Hf': 2.0}",Other,2
Co0.5Fe0.5U6,3.0,Co0.5 Fe0.5 U6,"[Element Co, Element Fe, Element U]","{'Co': 0.5, 'Fe': 0.5, 'U': 6.0}",Fe-based,3
Co0.5Fe0.5Ti1,3.3,Co0.5 Fe0.5 Ti1,"[Element Co, Element Fe, Element Ti]","{'Co': 0.5, 'Fe': 0.5, 'Ti': 1.0}",Fe-based,3
Co0.02Cu0.98Rh2Si4,3.8,Co0.02 Cu0.98 Rh2 Si4,"[Element Co, Element Cu, Element Rh, Element Si]","{'Co': 0.02, 'Cu': 0.98, 'Rh': 2.0, 'Si': 4.0}",Other,4
Co0.96Mo0.04U6,1.5,Co0.96 Mo0.04 U6,"[Element Co, Element Mo, Element U]","{'Co': 0.96, 'Mo': 0.04, 'U': 6.0}",Other,3
Co0.002Mo0.815Re0.185,5.8,Co0.002 Mo0.815 Re0.185,"[Element Co, Element Mo, Element Re]","{'Co': 0.002, 'Mo': 0.815, 'Re': 0.185}",Other,3
Co0.5Mn0.5U6,2.55,Co0.5 Mn0.5 U6,"[Element Co, Element Mn, Element U]","{'Co': 0.5, 'Mn': 0.5, 'U': 6.0}",Other,3
Co0.92Mn0.08U6,2.2,Co0.92 Mn0.08 U6,"[Element Co, Element Mn, Element U]","{'Co': 0.92, 'Mn': 0.08, 'U': 6.0}",Other,3
Co0.94Rh0.06U6,2.0,Co0.94 Rh0.06 U6,"[Element Co, Element Rh, Element U]","{'Co': 0.94, 'Rh': 0.06, 'U': 6.0}",Other,3
Co0.05Rh0.04Ti0.91,4.0,Co0.05 Rh0.04 Ti0.91,"[Element Co, Element Rh, Element Ti]","{'Co': 0.05, 'Rh': 0.04, 'Ti': 0.91}",Other,3
Co0.5Rh0.5Si2,2.0,Co0.5 Rh0.5 Si2,"[Element Co, Element Rh, Element Si]","{'Co': 0.5, 'Rh': 0.5, 'Si': 2.0}",Other,3
Co1Ti1,0.71,Co1 Ti1,"[Element Co, Element Ti]","{'Co': 1.0, 'Ti': 1.0}",Other,2
Co3Th7,1.83,Co3 Th7,"[Element Co, Element Th]","{'Co': 3.0, 'Th': 7.0}",Other,2
Co1Ta2,0.82,Co1 Ta2,"[Element Co, Element Ta]","{'Co': 1.0, 'Ta': 2.0}",Other,2
Co0.02Sn0.98Ta3,4.0,Co0.02 Sn0.98 Ta3,"[Element Co, Element Sn, Element Ta]","{'Co': 0.02, 'Sn': 0.98, 'Ta': 3.0}",Other,3
Co1Si2,1.22,Co1 Si2,"[Element Co, Element Si]","{'Co': 1.0, 'Si': 2.0}",Other,2
Co1U1,1.7,Co1 U1,"[Element Co, Element U]","{'Co': 1.0, 'U': 1.0}",Other,2
Co1Ti2,3.44,Co1 Ti2,"[Element Co, Element Ti]","{'Co': 1.0, 'Ti': 2.0}",Other,2
Cr0.2Fe0.8U6,3.3,Cr0.2 Fe0.8 U6,"[Element Cr, Element Fe, Element U]","{'Cr': 0.2, 'Fe': 0.8, 'U': 6.0}",Fe-based,3
Cr0.008Cu1Rh1.992S4,3.9,Cr0.008 Cu1 Rh1.992 S4,"[Element Cr, Element Cu, Element Rh, Element S]","{'Cr': 0.008, 'Cu': 1.0, 'Rh': 1.992, 'S': 4.0}",Other,4
Cr0.72Os0.28,3.95,Cr0.72 Os0.28,"[Element Cr, Element Os]","{'Cr': 0.72, 'Os': 0.28}",Other,2
Cr0.67Os0.33,1.03,Cr0.67 Os0.33,"[Element Cr, Element Os]","{'Cr': 0.67, 'Os': 0.33}",Other,2
Cr0.8Os0.2,2.5,Cr0.8 Os0.2,"[Element Cr, Element Os]","{'Cr': 0.8, 'Os': 0.2}",Other,2
Cr0.071Nb0.929,6.95,Cr0.071 Nb0.929,"[Element Cr, Element Nb]","{'Cr': 0.071, 'Nb': 0.929}",Other,2
Cr0.835Ir0.165,0.77,Cr0.835 Ir0.165,"[Element Cr, Element Ir]","{'Cr': 0.835, 'Ir': 0.165}",Other,2
Cr0.82Ir0.18,0.75,Cr0.82 Ir0.18,"[Element Cr, Element Ir]","{'Cr': 0.82, 'Ir': 0.18}",Other,2
Cr3Ir1,0.168,Cr3 Ir1,"[Element Cr, Element Ir]","{'Cr': 3.0, 'Ir': 1.0}",Other,2
Cr0.72Ru0.28,3.468,Cr0.72 Ru0.28,"[Element Cr, Element Ru]","{'Cr': 0.72, 'Ru': 0.28}",Other,2
Cr0.05Rh0.04Ti0.91,3.75,Cr0.05 Rh0.04 Ti0.91,"[Element Cr, Element Rh, Element Ti]","{'Cr': 0.05, 'Rh': 0.04, 'Ti': 0.91}",Other,3
Cr0.75Rh0.25,0.072,Cr0.75 Rh0.25,"[Element Cr, Element Rh]","{'Cr': 0.75, 'Rh': 0.25}",Other,2
Cr0.38Re0.62,4.1,Cr0.38 Re0.62,"[Element Cr, Element Re]","{'Cr': 0.38, 'Re': 0.62}",Other,2
Cr0.025Ti0.975,3.5,Cr0.025 Ti0.975,"[Element Cr, Element Ti]","{'Cr': 0.025, 'Ti': 0.975}",Other,2
Cr1Ti3,3.7,Cr1 Ti3,"[Element Cr, Element Ti]","{'Cr': 1.0, 'Ti': 3.0}",Other,2
Cr0.03Sc0.97,3.1,Cr0.03 Sc0.97,"[Element Cr, Element Sc]","{'Cr': 0.03, 'Sc': 0.97}",Other,2
Cs0.3Mo1S2,6.8,Cs0.3 Mo1 S2,"[Element Cs, Element Mo, Element S]","{'Cs': 0.3, 'Mo': 1.0, 'S': 2.0}",Other,3
Cr0.099V0.901,3.3,Cr0.099 V0.901,"[Element Cr, Element V]","{'Cr': 0.099, 'V': 0.901}",Other,2
Cr0.1V0.9,3.21,Cr0.1 V0.9,"[Element Cr, Element V]","{'Cr': 0.1, 'V': 0.9}",Other,2
Cr0.017U0.983,0.75,Cr0.017 U0.983,"[Element Cr, Element U]","{'Cr': 0.017, 'U': 0.983}",Other,2
Cr0.1Ti0.3V0.6,5.6,Cr0.1 Ti0.3 V0.6,"[Element Cr, Element Ti, Element V]","{'Cr': 0.1, 'Ti': 0.3, 'V': 0.6}",Other,3
Cr0.011Ti0.967V0.022,3.6,Cr0.011 Ti0.967 V0.022,"[Element Cr, Element Ti, Element V]","{'Cr': 0.011, 'Ti': 0.967, 'V': 0.022}",Other,3
Cu0.3La0.7,3.5,Cu0.3 La0.7,"[Element Cu, Element La]","{'Cu': 0.3, 'La': 0.7}",Other,2
Cu4K1S3,1.4,Cu4 K1 S3,"[Element Cu, Element K, Element S]","{'Cu': 4.0, 'K': 1.0, 'S': 3.0}",Other,3
Cu0.5Ge0.5,3.3,Cu0.5 Ge0.5,"[Element Cu, Element Ge]","{'Cu': 0.5, 'Ge': 0.5}",Other,2
Cs0.32O3W1,1.12,Cs0.32 O3 W1,"[Element Cs, Element O, Element W]","{'Cs': 0.32, 'O': 3.0, 'W': 1.0}",Other,3
Cu0.1Pb0.9,6.5,Cu0.1 Pb0.9,"[Element Cu, Element Pb]","{'Cu': 0.1, 'Pb': 0.9}",Other,2
Cu3Na2S3,0.3,Cu3 Na2 S3,"[Element Cu, Element Na, Element S]","{'Cu': 3.0, 'Na': 2.0, 'S': 3.0}",Other,3
Cu1Mo4S5,11.0,Cu1 Mo4 S5,"[Element Cu, Element Mo, Element S]","{'Cu': 1.0, 'Mo': 4.0, 'S': 5.0}",Other,3
Cu1Mo3S4,11.8,Cu1 Mo3 S4,"[Element Cu, Element Mo, Element S]","{'Cu': 1.0, 'Mo': 3.0, 'S': 4.0}",Other,3
Cu1.5Mo4.5S6,10.9,Cu1.5 Mo4.5 S6,"[Element Cu, Element Mo, Element S]","{'Cu': 1.5, 'Mo': 4.5, 'S': 6.0}",Other,3
Cu1S4V2,4.45,Cu1 S4 V2,"[Element Cu, Element S, Element V]","{'Cu': 1.0, 'S': 4.0, 'V': 2.0}",Other,3
Cu1S1Se1,1.5,Cu1 S1 Se1,"[Element Cu, Element S, Element Se]","{'Cu': 1.0, 'S': 1.0, 'Se': 1.0}",Other,3
Cu1S1,1.65,Cu1 S1,"[Element Cu, Element S]","{'Cu': 1.0, 'S': 1.0}",Other,2
Cu1S2,1.56,Cu1 S2,"[Element Cu, Element S]","{'Cu': 1.0, 'S': 2.0}",Other,2
Cu0.05Rh0.04Ti0.91,2.5,Cu0.05 Rh0.04 Ti0.91,"[Element Cu, Element Rh, Element Ti]","{'Cu': 0.05, 'Rh': 0.04, 'Ti': 0.91}",Other,3
Cu1Rh1.95Se4Sn0.05,2.7,Cu1 Rh1.95 Se4 Sn0.05,"[Element Cu, Element Rh, Element Se, Element Sn]","{'Cu': 1.0, 'Rh': 1.95, 'Se': 4.0, 'Sn': 0.05}",Other,4
Cu1Rh2Se4,3.5,Cu1 Rh2 Se4,"[Element Cu, Element Rh, Element Se]","{'Cu': 1.0, 'Rh': 2.0, 'Se': 4.0}",Other,3
Cu1Rh2S4,4.8,Cu1 Rh2 S4,"[Element Cu, Element Rh, Element S]","{'Cu': 1.0, 'Rh': 2.0, 'S': 4.0}",Other,3
Cu1Se1Te1,2.0,Cu1 Se1 Te1,"[Element Cu, Element Se, Element Te]","{'Cu': 1.0, 'Se': 1.0, 'Te': 1.0}",Other,3
Cu1Se2,2.43,Cu1 Se2,"[Element Cu, Element Se]","{'Cu': 1.0, 'Se': 2.0}",Other,2
Cu0.81Sb0.19,0.07,Cu0.81 Sb0.19,"[Element Cu, Element Sb]","{'Cu': 0.81, 'Sb': 0.19}",Other,2
Cu0.786Sb0.214,0.047,Cu0.786 Sb0.214,"[Element Cu, Element Sb]","{'Cu': 0.786, 'Sb': 0.214}",Other,2
Cu0.844Sb0.156,0.067,Cu0.844 Sb0.156,"[Element Cu, Element Sb]","{'Cu': 0.844, 'Sb': 0.156}",Other,2
Cu0.845Sb0.155,0.184,Cu0.845 Sb0.155,"[Element Cu, Element Sb]","{'Cu': 0.845, 'Sb': 0.155}",Other,2
Cu2Sb1,0.085,Cu2 Sb1,"[Element Cu, Element Sb]","{'Cu': 2.0, 'Sb': 1.0}",Other,2
Cu3Sb1,0.041,Cu3 Sb1,"[Element Cu, Element Sb]","{'Cu': 3.0, 'Sb': 1.0}",Other,2
Cu0.14Sn0.86,6.62,Cu0.14 Sn0.86,"[Element Cu, Element Sn]","{'Cu': 0.14, 'Sn': 0.86}",Other,2
Cu0.1Sn0.9,6.8,Cu0.1 Sn0.9,"[Element Cu, Element Sn]","{'Cu': 0.1, 'Sn': 0.9}",Other,2
Cu0.86Si0.14,0.058,Cu0.86 Si0.14,"[Element Cu, Element Si]","{'Cu': 0.86, 'Si': 0.14}",Other,2
Cu1Th2,3.44,Cu1 Th2,"[Element Cu, Element Th]","{'Cu': 1.0, 'Th': 2.0}",Other,2
Cu1Te2,1.3,Cu1 Te2,"[Element Cu, Element Te]","{'Cu': 1.0, 'Te': 2.0}",Other,2
Fe0.008La0.992,4.85,Fe0.008 La0.992,"[Element Fe, Element La]","{'Fe': 0.008, 'La': 0.992}",Fe-based,2
Eu0.012La0.988,2.15,Eu0.012 La0.988,"[Element Eu, Element La]","{'Eu': 0.012, 'La': 0.988}",Other,2
Er0.01La0.99,5.3,Er0.01 La0.99,"[Element Er, Element La]","{'Er': 0.01, 'La': 0.99}",Other,2
Fe0.75Ni0.25U6,1.4,Fe0.75 Ni0.25 U6,"[Element Fe, Element Ni, Element U]","{'Fe': 0.75, 'Ni': 0.25, 'U': 6.0}",Fe-based,3
Fe0.25Ni0.75U6,3.0,Fe0.25 Ni0.75 U6,"[Element Fe, Element Ni, Element U]","{'Fe': 0.25, 'Ni': 0.75, 'U': 6.0}",Fe-based,3
Fe0.5Ni0.5U6,2.1,Fe0.5 Ni0.5 U6,"[Element Fe, Element Ni, Element U]","{'Fe': 0.5, 'Ni': 0.5, 'U': 6.0}",Fe-based,3
Fe0.03Nb0.25Ti0.72,8.5,Fe0.03 Nb0.25 Ti0.72,"[Element Fe, Element Nb, Element Ti]","{'Fe': 0.03, 'Nb': 0.25, 'Ti': 0.72}",Fe-based,3
Fe0.04Nb0.1Ti0.86,7.4,Fe0.04 Nb0.1 Ti0.86,"[Element Fe, Element Nb, Element Ti]","{'Fe': 0.04, 'Nb': 0.1, 'Ti': 0.86}",Fe-based,3
Fe0.08Nb0.05Ti0.87,4.7,Fe0.08 Nb0.05 Ti0.87,"[Element Fe, Element Nb, Element Ti]","{'Fe': 0.08, 'Nb': 0.05, 'Ti': 0.87}",Fe-based,3
Fe0.5Mn0.5U6,2.8,Fe0.5 Mn0.5 U6,"[Element Fe, Element Mn, Element U]","{'Fe': 0.5, 'Mn': 0.5, 'U': 6.0}",Fe-based,3
Fe0.01La0.001Rh0.99,0.75,Fe0.01 La0.001 Rh0.99,"[Element Fe, Element La, Element Rh]","{'Fe': 0.01, 'La': 0.001, 'Rh': 0.99}",Fe-based,3
Fe0.01La0.01Rh0.98,0.75,Fe0.01 La0.01 Rh0.98,"[Element Fe, Element La, Element Rh]","{'Fe': 0.01, 'La': 0.01, 'Rh': 0.98}",Fe-based,3
Fe0.05Rh0.04Ti0.91,3.9,Fe0.05 Rh0.04 Ti0.91,"[Element Fe, Element Rh, Element Ti]","{'Fe': 0.05, 'Rh': 0.04, 'Ti': 0.91}",Fe-based,3
Fe0.02Re0.98,1.6,Fe0.02 Re0.98,"[Element Fe, Element Re]","{'Fe': 0.02, 'Re': 0.98}",Fe-based,2
Fe3Th7,1.86,Fe3 Th7,"[Element Fe, Element Th]","{'Fe': 3.0, 'Th': 7.0}",Fe-based,2
Ga3Lu1,2.3,Ga3 Lu1,"[Element Ga, Element Lu]","{'Ga': 3.0, 'Lu': 1.0}",Other,2
Ga1La3,5.84,Ga1 La3,"[Element Ga, Element La]","{'Ga': 1.0, 'La': 3.0}",Other,2
Ga0.8In0.2V3,12.7,Ga0.8 In0.2 V3,"[Element Ga, Element In, Element V]","{'Ga': 0.8, 'In': 0.2, 'V': 3.0}",Other,3
Ga0.3In0.7La3,9.25,Ga0.3 In0.7 La3,"[Element Ga, Element In, Element La]","{'Ga': 0.3, 'In': 0.7, 'La': 3.0}",Other,3
Ga1Hf2,0.21,Ga1 Hf2,"[Element Ga, Element Hf]","{'Ga': 1.0, 'Hf': 2.0}",Other,2
Ga0.8Ge0.2V3,13.6,Ga0.8 Ge0.2 V3,"[Element Ga, Element Ge, Element V]","{'Ga': 0.8, 'Ge': 0.2, 'V': 3.0}",Other,3
Ga0.1Ge0.9,5.3,Ga0.1 Ge0.9,"[Element Ga, Element Ge]","{'Ga': 0.1, 'Ge': 0.9}",Other,2
Ga0.4Nb0.6,20.3,Ga0.4 Nb0.6,"[Element Ga, Element Nb]","{'Ga': 0.4, 'Nb': 0.6}",Other,2
Ga1Nb3,14.5,Ga1 Nb3,"[Element Ga, Element Nb]","{'Ga': 1.0, 'Nb': 3.0}",Other,2
Ga3Nb5,1.35,Ga3 Nb5,"[Element Ga, Element Nb]","{'Ga': 3.0, 'Nb': 5.0}",Other,2
Ga1N1,5.85,Ga1 N1,"[Element Ga, Element N]","{'Ga': 1.0, 'N': 1.0}",Other,2
Ga0.5Mo5S6Sn1,13.3,Ga0.5 Mo5 S6 Sn1,"[Element Ga, Element Mo, Element S, Element Sn]","{'Ga': 0.5, 'Mo': 5.0, 'S': 6.0, 'Sn': 1.0}",Other,4
Ga1Mo3,0.76,Ga1 Mo3,"[Element Ga, Element Mo]","{'Ga': 1.0, 'Mo': 3.0}",Other,2
Ga2Mo1,9.5,Ga2 Mo1,"[Element Ga, Element Mo]","{'Ga': 2.0, 'Mo': 1.0}",Other,2
Ga4Mo1,9.8,Ga4 Mo1,"[Element Ga, Element Mo]","{'Ga': 4.0, 'Mo': 1.0}",Other,2
Ga0.5Si0.5V3,18.2,Ga0.5 Si0.5 V3,"[Element Ga, Element Si, Element V]","{'Ga': 0.5, 'Si': 0.5, 'V': 3.0}",Other,3
Ga0.25Si0.75V3,18.6,Ga0.25 Si0.75 V3,"[Element Ga, Element Si, Element V]","{'Ga': 0.25, 'Si': 0.75, 'V': 3.0}",Other,3
Ga1Pt1,1.74,Ga1 Pt1,"[Element Ga, Element Pt]","{'Ga': 1.0, 'Pt': 1.0}",Other,2
Ga2Pt1,1.9,Ga2 Pt1,"[Element Ga, Element Pt]","{'Ga': 2.0, 'Pt': 1.0}",Other,2
Ga7Pt3,2.9,Ga7 Pt3,"[Element Ga, Element Pt]","{'Ga': 7.0, 'Pt': 3.0}",Other,2
Ga0.1Pb0.9,6.33,Ga0.1 Pb0.9,"[Element Ga, Element Pb]","{'Ga': 0.1, 'Pb': 0.9}",Other,2
Ga1Nb2.4V0.6,12.5,Ga1 Nb2.4 V0.6,"[Element Ga, Element Nb, Element V]","{'Ga': 1.0, 'Nb': 2.4, 'V': 0.6}",Other,3
Ga0.15Nb3Sn0.7Tl0.15,18.14,Ga0.15 Nb3 Sn0.7 Tl0.15,"[Element Ga, Element Nb, Element Sn, Element Tl]","{'Ga': 0.15, 'Nb': 3.0, 'Sn': 0.7, 'Tl': 0.15}",Other,4