chemical_formula,Tc,composition,elements,stoichiometry,Category,num_elements
Ca0.2Ba1.55La1.25Cu3O7.159,68.7,Ca0.2 Ba1.55 La1.25 Cu3 O7.159,"[Element Ca, Element Ba, Element La, Element Cu, Element O]","{'Ca': 0.2, 'Ba': 1.55, 'La': 1.25, 'Cu': 3.0, 'O': 7.159}",Cuprates,5
Ca0.3Ba1.45La1.25Cu3O7.172,76.9,Ca0.3 Ba1.45 La1.25 Cu3 O7.172,"[Element Ca, Element Ba, Element La, Element Cu, Element O]","{'Ca': 0.3, 'Ba': 1.45, 'La': 1.25, 'Cu': 3.0, 'O': 7.172}",Cuprates,5
La1.925Ce0.075Cu1O4,3.92,La1.925 Ce0.075 Cu1 O4,"[Element La, Element Ce, Element Cu, Element O]","{'La': 1.925, 'Ce': 0.075, 'Cu': 1.0, 'O': 4.0}",Cuprates,4
La1.895Ce0.105Cu1O4,24.3,La1.895 Ce0.105 Cu1 O4,"[Element La, Element Ce, Element Cu, Element O]","{'La': 1.895, 'Ce': 0.105, 'Cu': 1.0, 'O': 4.0}",Cuprates,4
La1.88Ce0.12Cu1O4,24.3,La1.88 Ce0.12 Cu1 O4,"[Element La, Element Ce, Element Cu, Element O]","{'La': 1.88, 'Ce': 0.12, 'Cu': 1.0, 'O': 4.0}",Cuprates,4
La1.936Ce0.064Cu1O4,13.8,La1.936 Ce0.064 Cu1 O4,"[Element La, Element Ce, Element Cu, Element O]","{'La': 1.936, 'Ce': 0.064, 'Cu': 1.0, 'O': 4.0}",Cuprates,4
La1.891Ce0.109Cu1O4,28.5,La1.891 Ce0.109 Cu1 O4,"[Element La, Element Ce, Element Cu, Element O]","{'La': 1.891, 'Ce': 0.109, 'Cu': 1.0, 'O': 4.0}",Cuprates,4
La1.821Ce0.179Cu1O4,7.225,La1.821 Ce0.179 Cu1 O4,"[Element La, Element Ce, Element Cu, Element O]","{'La': 1.821, 'Ce': 0.179, 'Cu': 1.0, 'O': 4.0}",Cuprates,4
W0.474O0.106C0.42,3.85,W0.474 O0.106 C0.42,"[Element W, Element O, Element C]","{'W': 0.474, 'O': 0.106, 'C': 0.42}",Other,3
Mo1B0.01C0.82,12.2,Mo1 B0.01 C0.82,"[Element Mo, Element B, Element C]","{'Mo': 1.0, 'B': 0.01, 'C': 0.82}",Other,3
Mo1B0.03C0.82,11.8,Mo1 B0.03 C0.82,"[Element Mo, Element B, Element C]","{'Mo': 1.0, 'B': 0.03, 'C': 0.82}",Other,3
Mo1B0.05C0.82,11.5,Mo1 B0.05 C0.82,"[Element Mo, Element B, Element C]","{'Mo': 1.0, 'B': 0.05, 'C': 0.82}",Other,3
Mo0.95Hf0.05C0.65,8.81,Mo0.95 Hf0.05 C0.65,"[Element Mo, Element Hf, Element C]","{'Mo': 0.95, 'Hf': 0.05, 'C': 0.65}",Other,3
Mo0.95Hf0.05C0.68,9.87,Mo0.95 Hf0.05 C0.68,"[Element Mo, Element Hf, Element C]","{'Mo': 0.95, 'Hf': 0.05, 'C': 0.68}",Other,3
Mo0.95Hf0.05C0.7,10.9,Mo0.95 Hf0.05 C0.7,"[Element Mo, Element Hf, Element C]","{'Mo': 0.95, 'Hf': 0.05, 'C': 0.7}",Other,3
Mo0.95Hf0.05C0.73,12.0,Mo0.95 Hf0.05 C0.73,"[Element Mo, Element Hf, Element C]","{'Mo': 0.95, 'Hf': 0.05, 'C': 0.73}",Other,3
Mo0.95Hf0.05C0.74,12.4,Mo0.95 Hf0.05 C0.74,"[Element Mo, Element Hf, Element C]","{'Mo': 0.95, 'Hf': 0.05, 'C': 0.74}",Other,3
C0.64Mo1,8.9,C0.64 Mo1,"[Element C, Element Mo]","{'C': 0.64, 'Mo': 1.0}",Other,2
C0.75Mo1,14.7,C0.75 Mo1,"[Element C, Element Mo]","{'C': 0.75, 'Mo': 1.0}",Other,2
Mg10Ir19B16,4.4,Mg10 Ir19 B16,"[Element Mg, Element Ir, Element B]","{'Mg': 10.0, 'Ir': 19.0, 'B': 16.0}",Other,3
Ba1Al0.95Si1.05,2.8,Ba1 Al0.95 Si1.05,"[Element Ba, Element Al, Element Si]","{'Ba': 1.0, 'Al': 0.95, 'Si': 1.05}",Other,3
La1Ni1C2,2.9,La1 Ni1 C2,"[Element La, Element Ni, Element C]","{'La': 1.0, 'Ni': 1.0, 'C': 2.0}",Other,3
La0.9Th0.1Ni1C2,4.45,La0.9 Th0.1 Ni1 C2,"[Element La, Element Th, Element Ni, Element C]","{'La': 0.9, 'Th': 0.1, 'Ni': 1.0, 'C': 2.0}",Other,4
La0.8Th0.2Ni1C2,5.4,La0.8 Th0.2 Ni1 C2,"[Element La, Element Th, Element Ni, Element C]","{'La': 0.8, 'Th': 0.2, 'Ni': 1.0, 'C': 2.0}",Other,4
La0.7Th0.3Ni1C2,7.2,La0.7 Th0.3 Ni1 C2,"[Element La, Element Th, Element Ni, Element C]","{'La': 0.7, 'Th': 0.3, 'Ni': 1.0, 'C': 2.0}",Other,4
La0.6Th0.4Ni1C2,7.7,La0.6 Th0.4 Ni1 C2,"[Element La, Element Th, Element Ni, Element C]","{'La': 0.6, 'Th': 0.4, 'Ni': 1.0, 'C': 2.0}",Other,4
La0.5Th0.5Ni1C2,7.9,La0.5 Th0.5 Ni1 C2,"[Element La, Element Th, Element Ni, Element C]","{'La': 0.5, 'Th': 0.5, 'Ni': 1.0, 'C': 2.0}",Other,4
La0.4Th0.6Ni1C2,7.6,La0.4 Th0.6 Ni1 C2,"[Element La, Element Th, Element Ni, Element C]","{'La': 0.4, 'Th': 0.6, 'Ni': 1.0, 'C': 2.0}",Other,4
La0.3Th0.7Ni1C2,6.3,La0.3 Th0.7 Ni1 C2,"[Element La, Element Th, Element Ni, Element C]","{'La': 0.3, 'Th': 0.7, 'Ni': 1.0, 'C': 2.0}",Other,4
La0.2Th0.8Ni1C2,4.2,La0.2 Th0.8 Ni1 C2,"[Element La, Element Th, Element Ni, Element C]","{'La': 0.2, 'Th': 0.8, 'Ni': 1.0, 'C': 2.0}",Other,4
Ce2Rh1In8,0.6,Ce2 Rh1 In8,"[Element Ce, Element Rh, Element In]","{'Ce': 2.0, 'Rh': 1.0, 'In': 8.0}",Other,3
C60Ca5,8.4,C60 Ca5,"[Element C, Element Ca]","{'C': 60.0, 'Ca': 5.0}",Other,2
Ba4C60,6.7,Ba4 C60,"[Element Ba, Element C]","{'Ba': 4.0, 'C': 60.0}",Other,2
C60Sr4,4.4,C60 Sr4,"[Element C, Element Sr]","{'C': 60.0, 'Sr': 4.0}",Other,2
Hg1Pb1.8,5.7,Hg1 Pb1.8,"[Element Hg, Element Pb]","{'Hg': 1.0, 'Pb': 1.8}",Other,2
Hg1Pb2,5.8,Hg1 Pb2,"[Element Hg, Element Pb]","{'Hg': 1.0, 'Pb': 2.0}",Other,2
Hg1Pb2.1,5.85,Hg1 Pb2.1,"[Element Hg, Element Pb]","{'Hg': 1.0, 'Pb': 2.1}",Other,2
Hg1Pb2.3,6.0,Hg1 Pb2.3,"[Element Hg, Element Pb]","{'Hg': 1.0, 'Pb': 2.3}",Other,2
Hg1Sm0.5Pb2,5.7,Hg1 Sm0.5 Pb2,"[Element Hg, Element Sm, Element Pb]","{'Hg': 1.0, 'Sm': 0.5, 'Pb': 2.0}",Other,3
Hg1Sm1Pb2,5.9,Hg1 Sm1 Pb2,"[Element Hg, Element Sm, Element Pb]","{'Hg': 1.0, 'Sm': 1.0, 'Pb': 2.0}",Other,3
Hg1Sm0.5In0.5Pb2,6.9,Hg1 Sm0.5 In0.5 Pb2,"[Element Hg, Element Sm, Element In, Element Pb]","{'Hg': 1.0, 'Sm': 0.5, 'In': 0.5, 'Pb': 2.0}",Other,4
Ce0.15Ru0.85,3.9,Ce0.15 Ru0.85,"[Element Ce, Element Ru]","{'Ce': 0.15, 'Ru': 0.85}",Other,2
Lu5Ir4Si10,3.9,Lu5 Ir4 Si10,"[Element Lu, Element Ir, Element Si]","{'Lu': 5.0, 'Ir': 4.0, 'Si': 10.0}",Other,3
Ce1Co1Ge3,0.7,Ce1 Co1 Ge3,"[Element Ce, Element Co, Element Ge]","{'Ce': 1.0, 'Co': 1.0, 'Ge': 3.0}",Other,3
Lu5Ir4Si9.95Ge0.05,4.1,Lu5 Ir4 Si9.95 Ge0.05,"[Element Lu, Element Ir, Element Si, Element Ge]","{'Lu': 5.0, 'Ir': 4.0, 'Si': 9.95, 'Ge': 0.05}",Other,4
Lu5Ir4Si9.9Ge0.1,4.7,Lu5 Ir4 Si9.9 Ge0.1,"[Element Lu, Element Ir, Element Si, Element Ge]","{'Lu': 5.0, 'Ir': 4.0, 'Si': 9.9, 'Ge': 0.1}",Other,4
Lu5Ir4Si9.8Ge0.2,5.8,Lu5 Ir4 Si9.8 Ge0.2,"[Element Lu, Element Ir, Element Si, Element Ge]","{'Lu': 5.0, 'Ir': 4.0, 'Si': 9.8, 'Ge': 0.2}",Other,4
Lu5Ir4Si9.5Ge0.5,6.0,Lu5 Ir4 Si9.5 Ge0.5,"[Element Lu, Element Ir, Element Si, Element Ge]","{'Lu': 5.0, 'Ir': 4.0, 'Si': 9.5, 'Ge': 0.5}",Other,4
Lu5Ir4Si9Ge1,6.38,Lu5 Ir4 Si9 Ge1,"[Element Lu, Element Ir, Element Si, Element Ge]","{'Lu': 5.0, 'Ir': 4.0, 'Si': 9.0, 'Ge': 1.0}",Other,4
Ba8Si40Ga6,3.3,Ba8 Si40 Ga6,"[Element Ba, Element Si, Element Ga]","{'Ba': 8.0, 'Si': 40.0, 'Ga': 6.0}",Other,3
Bi2Rh3Se2,0.84,Bi2 Rh3 Se2,"[Element Bi, Element Rh, Element Se]","{'Bi': 2.0, 'Rh': 3.0, 'Se': 2.0}",Other,3
Nb2Se3,2.3,Nb2 Se3,"[Element Nb, Element Se]","{'Nb': 2.0, 'Se': 3.0}",Other,2
Ce0.147Ru0.853,3.6,Ce0.147 Ru0.853,"[Element Ce, Element Ru]","{'Ce': 0.147, 'Ru': 0.853}",Other,2
Ca0.1La1.15Ba1.75Cu3O7.148,57.1,Ca0.1 La1.15 Ba1.75 Cu3 O7.148,"[Element Ca, Element La, Element Ba, Element Cu, Element O]","{'Ca': 0.1, 'La': 1.15, 'Ba': 1.75, 'Cu': 3.0, 'O': 7.148}",Cuprates,5
Lu5Ir4Si8Ge2,6.6,Lu5 Ir4 Si8 Ge2,"[Element Lu, Element Ir, Element Si, Element Ge]","{'Lu': 5.0, 'Ir': 4.0, 'Si': 8.0, 'Ge': 2.0}",Other,4
Lu5Ir4Si6Ge4,5.1,Lu5 Ir4 Si6 Ge4,"[Element Lu, Element Ir, Element Si, Element Ge]","{'Lu': 5.0, 'Ir': 4.0, 'Si': 6.0, 'Ge': 4.0}",Other,4
Lu5Ir4Ge10,2.5,Lu5 Ir4 Ge10,"[Element Lu, Element Ir, Element Ge]","{'Lu': 5.0, 'Ir': 4.0, 'Ge': 10.0}",Other,3
Ba8Si42Cu4,2.9,Ba8 Si42 Cu4,"[Element Ba, Element Si, Element Cu]","{'Ba': 8.0, 'Si': 42.0, 'Cu': 4.0}",Other,3
Mg0.95Cu0.05B2,37.75,Mg0.95 Cu0.05 B2,"[Element Mg, Element Cu, Element B]","{'Mg': 0.95, 'Cu': 0.05, 'B': 2.0}",Other,3
Ba8Ge46,10.0,Ba8 Ge46,"[Element Ba, Element Ge]","{'Ba': 8.0, 'Ge': 46.0}",Other,2
Ba8Ge42Co4,7.0,Ba8 Ge42 Co4,"[Element Ba, Element Ge, Element Co]","{'Ba': 8.0, 'Ge': 42.0, 'Co': 4.0}",Other,3
Cu0.07Ti1Se2,3.9,Cu0.07 Ti1 Se2,"[Element Cu, Element Ti, Element Se]","{'Cu': 0.07, 'Ti': 1.0, 'Se': 2.0}",Other,3
Cu0.045Ti1Se2,0.95,Cu0.045 Ti1 Se2,"[Element Cu, Element Ti, Element Se]","{'Cu': 0.045, 'Ti': 1.0, 'Se': 2.0}",Other,3
Cu0.05Ti1Se2,1.4,Cu0.05 Ti1 Se2,"[Element Cu, Element Ti, Element Se]","{'Cu': 0.05, 'Ti': 1.0, 'Se': 2.0}",Other,3
Cu0.06Ti1Se2,2.39,Cu0.06 Ti1 Se2,"[Element Cu, Element Ti, Element Se]","{'Cu': 0.06, 'Ti': 1.0, 'Se': 2.0}",Other,3
Cu0.08Ti1Se2,4.15,Cu0.08 Ti1 Se2,"[Element Cu, Element Ti, Element Se]","{'Cu': 0.08, 'Ti': 1.0, 'Se': 2.0}",Other,3
Cu0.1Ti1Se2,2.68,Cu0.1 Ti1 Se2,"[Element Cu, Element Ti, Element Se]","{'Cu': 0.1, 'Ti': 1.0, 'Se': 2.0}",Other,3
La1Ir1Si3,0.77,La1 Ir1 Si3,"[Element La, Element Ir, Element Si]","{'La': 1.0, 'Ir': 1.0, 'Si': 3.0}",Other,3
Ce1Ir0.8Co0.2Si3,0.62,Ce1 Ir0.8 Co0.2 Si3,"[Element Ce, Element Ir, Element Co, Element Si]","{'Ce': 1.0, 'Ir': 0.8, 'Co': 0.2, 'Si': 3.0}",Other,4
Ce1Ir0.65Co0.35Si3,0.75,Ce1 Ir0.65 Co0.35 Si3,"[Element Ce, Element Ir, Element Co, Element Si]","{'Ce': 1.0, 'Ir': 0.65, 'Co': 0.35, 'Si': 3.0}",Other,4
Rb0.19W1O3.001,5.02,Rb0.19 W1 O3.001,"[Element Rb, Element W, Element O]","{'Rb': 0.19, 'W': 1.0, 'O': 3.001}",Other,3
Rb0.23W1O3.05,5.01,Rb0.23 W1 O3.05,"[Element Rb, Element W, Element O]","{'Rb': 0.23, 'W': 1.0, 'O': 3.05}",Other,3
Rb0.27W1O2.93,3.0,Rb0.27 W1 O2.93,"[Element Rb, Element W, Element O]","{'Rb': 0.27, 'W': 1.0, 'O': 2.93}",Other,3
Cu0.06Ti2Se2,2.0,Cu0.06 Ti2 Se2,"[Element Cu, Element Ti, Element Se]","{'Cu': 0.06, 'Ti': 2.0, 'Se': 2.0}",Other,3
Cu0.08Ti2Se2,3.95,Cu0.08 Ti2 Se2,"[Element Cu, Element Ti, Element Se]","{'Cu': 0.08, 'Ti': 2.0, 'Se': 2.0}",Other,3
Cu0.1Ti2Se2,2.95,Cu0.1 Ti2 Se2,"[Element Cu, Element Ti, Element Se]","{'Cu': 0.1, 'Ti': 2.0, 'Se': 2.0}",Other,3
C0.3Ba2Ca4Cu5.7O12.8,99.0,C0.3 Ba2 Ca4 Cu5.7 O12.8,"[Element C, Element Ba, Element Ca, Element Cu, Element O]","{'C': 0.3, 'Ba': 2.0, 'Ca': 4.0, 'Cu': 5.7, 'O': 12.8}",Cuprates,5
C0.3Ba2Ca4Cu5.7O12.965,93.3,C0.3 Ba2 Ca4 Cu5.7 O12.965,"[Element C, Element Ba, Element Ca, Element Cu, Element O]","{'C': 0.3, 'Ba': 2.0, 'Ca': 4.0, 'Cu': 5.7, 'O': 12.965}",Cuprates,5
Na0.33Ta1S2,4.7,Na0.33 Ta1 S2,"[Element Na, Element Ta, Element S]","{'Na': 0.33, 'Ta': 1.0, 'S': 2.0}",Other,3
K0.33Ta1S2,3.8,K0.33 Ta1 S2,"[Element K, Element Ta, Element S]","{'K': 0.33, 'Ta': 1.0, 'S': 2.0}",Other,3
Rb0.33Ta1S2,3.0,Rb0.33 Ta1 S2,"[Element Rb, Element Ta, Element S]","{'Rb': 0.33, 'Ta': 1.0, 'S': 2.0}",Other,3
Cs0.33Ta1S2,3.8,Cs0.33 Ta1 S2,"[Element Cs, Element Ta, Element S]","{'Cs': 0.33, 'Ta': 1.0, 'S': 2.0}",Other,3
Na0.5Nb1S2,1.3,Na0.5 Nb1 S2,"[Element Na, Element Nb, Element S]","{'Na': 0.5, 'Nb': 1.0, 'S': 2.0}",Other,3
K0.5Nb1S2,1.7,K0.5 Nb1 S2,"[Element K, Element Nb, Element S]","{'K': 0.5, 'Nb': 1.0, 'S': 2.0}",Other,3
Rb0.5Nb1S2,1.8,Rb0.5 Nb1 S2,"[Element Rb, Element Nb, Element S]","{'Rb': 0.5, 'Nb': 1.0, 'S': 2.0}",Other,3
Cs0.5Nb1S2,2.8,Cs0.5 Nb1 S2,"[Element Cs, Element Nb, Element S]","{'Cs': 0.5, 'Nb': 1.0, 'S': 2.0}",Other,3
H0.1Ta1S2,3.9,H0.1 Ta1 S2,"[Element H, Element Ta, Element S]","{'H': 0.1, 'Ta': 1.0, 'S': 2.0}",Hydrides,3
Ca0.6Mo1S2,4.0,Ca0.6 Mo1 S2,"[Element Ca, Element Mo, Element S]","{'Ca': 0.6, 'Mo': 1.0, 'S': 2.0}",Other,3
Sr0.8Mo1S2,5.6,Sr0.8 Mo1 S2,"[Element Sr, Element Mo, Element S]","{'Sr': 0.8, 'Mo': 1.0, 'S': 2.0}",Other,3
Mo64Ru16P20,7.31,Mo64 Ru16 P20,"[Element Mo, Element Ru, Element P]","{'Mo': 64.0, 'Ru': 16.0, 'P': 20.0}",Other,3
Mo48Ru32P20,6.18,Mo48 Ru32 P20,"[Element Mo, Element Ru, Element P]","{'Mo': 48.0, 'Ru': 32.0, 'P': 20.0}",Other,3
Mo32Ru48P20,4.68,Mo32 Ru48 P20,"[Element Mo, Element Ru, Element P]","{'Mo': 32.0, 'Ru': 48.0, 'P': 20.0}",Other,3
Mo16Ru64P20,3.43,Mo16 Ru64 P20,"[Element Mo, Element Ru, Element P]","{'Mo': 16.0, 'Ru': 64.0, 'P': 20.0}",Other,3
Mo80P10B10,9.0,Mo80 P10 B10,"[Element Mo, Element P, Element B]","{'Mo': 80.0, 'P': 10.0, 'B': 10.0}",Other,3
Mo64Re16P10B10,8.71,Mo64 Re16 P10 B10,"[Element Mo, Element Re, Element P, Element B]","{'Mo': 64.0, 'Re': 16.0, 'P': 10.0, 'B': 10.0}",Other,4
Al0.2La0.8,4.43,Al0.2 La0.8,"[Element Al, Element La]","{'Al': 0.2, 'La': 0.8}",Other,2
Al0.22La0.78,4.3,Al0.22 La0.78,"[Element Al, Element La]","{'Al': 0.22, 'La': 0.78}",Other,2
Al0.25La0.75,3.98,Al0.25 La0.75,"[Element Al, Element La]","{'Al': 0.25, 'La': 0.75}",Other,2
Al0.27La0.73,3.82,Al0.27 La0.73,"[Element Al, Element La]","{'Al': 0.27, 'La': 0.73}",Other,2
Al0.32La0.68,3.23,Al0.32 La0.68,"[Element Al, Element La]","{'Al': 0.32, 'La': 0.68}",Other,2
Al0.18La0.82,4.65,Al0.18 La0.82,"[Element Al, Element La]","{'Al': 0.18, 'La': 0.82}",Other,2
Au0.2La0.8,4.23,Au0.2 La0.8,"[Element Au, Element La]","{'Au': 0.2, 'La': 0.8}",Other,2
Ge0.2La0.8,5.1,Ge0.2 La0.8,"[Element Ge, Element La]","{'Ge': 0.2, 'La': 0.8}",Other,2
Au0.24La0.76,3.28,Au0.24 La0.76,"[Element Au, Element La]","{'Au': 0.24, 'La': 0.76}",Other,2
Cu20Sn80,5.71,Cu20 Sn80,"[Element Cu, Element Sn]","{'Cu': 20.0, 'Sn': 80.0}",Other,2
Cu30Sn70,4.91,Cu30 Sn70,"[Element Cu, Element Sn]","{'Cu': 30.0, 'Sn': 70.0}",Other,2
Cu40Sn60,4.19,Cu40 Sn60,"[Element Cu, Element Sn]","{'Cu': 40.0, 'Sn': 60.0}",Other,2
Cu50Sn50,3.26,Cu50 Sn50,"[Element Cu, Element Sn]","{'Cu': 50.0, 'Sn': 50.0}",Other,2
Cu60Sn40,2.26,Cu60 Sn40,"[Element Cu, Element Sn]","{'Cu': 60.0, 'Sn': 40.0}",Other,2
Cu70Sn30,1.2,Cu70 Sn30,"[Element Cu, Element Sn]","{'Cu': 70.0, 'Sn': 30.0}",Other,2
B0.69Mg0.31,5.7,B0.69 Mg0.31,"[Element B, Element Mg]","{'B': 0.69, 'Mg': 0.31}",Other,2
Ti70Nb15Si15,4.6,Ti70 Nb15 Si15,"[Element Ti, Element Nb, Element Si]","{'Ti': 70.0, 'Nb': 15.0, 'Si': 15.0}",Other,3
Ti55Nb30Si15,4.9,Ti55 Nb30 Si15,"[Element Ti, Element Nb, Element Si]","{'Ti': 55.0, 'Nb': 30.0, 'Si': 15.0}",Other,3
Ti60Nb25Si15,4.8,Ti60 Nb25 Si15,"[Element Ti, Element Nb, Element Si]","{'Ti': 60.0, 'Nb': 25.0, 'Si': 15.0}",Other,3
Ti50Nb35Si15,5.0,Ti50 Nb35 Si15,"[Element Ti, Element Nb, Element Si]","{'Ti': 50.0, 'Nb': 35.0, 'Si': 15.0}",Other,3
Ti45Nb40Si15,5.1,Ti45 Nb40 Si15,"[Element Ti, Element Nb, Element Si]","{'Ti': 45.0, 'Nb': 40.0, 'Si': 15.0}",Other,3
Ti56Nb30Si14,5.0,Ti56 Nb30 Si14,"[Element Ti, Element Nb, Element Si]","{'Ti': 56.0, 'Nb': 30.0, 'Si': 14.0}",Other,3
Ti54Nb30Si16,4.8,Ti54 Nb30 Si16,"[Element Ti, Element Nb, Element Si]","{'Ti': 54.0, 'Nb': 30.0, 'Si': 16.0}",Other,3
Ti52Nb30Si18,4.7,Ti52 Nb30 Si18,"[Element Ti, Element Nb, Element Si]","{'Ti': 52.0, 'Nb': 30.0, 'Si': 18.0}",Other,3
Au22La78,3.934,Au22 La78,"[Element Au, Element La]","{'Au': 22.0, 'La': 78.0}",Other,2
La75Au15Cu10,3.795,La75 Au15 Cu10,"[Element La, Element Au, Element Cu]","{'La': 75.0, 'Au': 15.0, 'Cu': 10.0}",Other,3
Mo30Re70,7.62,Mo30 Re70,"[Element Mo, Element Re]","{'Mo': 30.0, 'Re': 70.0}",Other,2
Ti55Nb30Si12B3,5.0,Ti55 Nb30 Si12 B3,"[Element Ti, Element Nb, Element Si, Element B]","{'Ti': 55.0, 'Nb': 30.0, 'Si': 12.0, 'B': 3.0}",Other,4
Ti45Nb40Si12B3,5.4,Ti45 Nb40 Si12 B3,"[Element Ti, Element Nb, Element Si, Element B]","{'Ti': 45.0, 'Nb': 40.0, 'Si': 12.0, 'B': 3.0}",Other,4
Nb55Rh45,5.13,Nb55 Rh45,"[Element Nb, Element Rh]","{'Nb': 55.0, 'Rh': 45.0}",Other,2
Ir45Nb55,4.88,Ir45 Nb55,"[Element Ir, Element Nb]","{'Ir': 45.0, 'Nb': 55.0}",Other,2
Rh45Ta55,3.37,Rh45 Ta55,"[Element Rh, Element Ta]","{'Rh': 45.0, 'Ta': 55.0}",Other,2
Ir45Ta55,3.39,Ir45 Ta55,"[Element Ir, Element Ta]","{'Ir': 45.0, 'Ta': 55.0}",Other,2
Nb41.25Ta13.75Rh45,4.615,Nb41.25 Ta13.75 Rh45,"[Element Nb, Element Ta, Element Rh]","{'Nb': 41.25, 'Ta': 13.75, 'Rh': 45.0}",Other,3
Nb27.5Ta27.5Rh45,3.965,Nb27.5 Ta27.5 Rh45,"[Element Nb, Element Ta, Element Rh]","{'Nb': 27.5, 'Ta': 27.5, 'Rh': 45.0}",Other,3
Nb13.75Ta41.25Rh45,3.56,Nb13.75 Ta41.25 Rh45,"[Element Nb, Element Ta, Element Rh]","{'Nb': 13.75, 'Ta': 41.25, 'Rh': 45.0}",Other,3
Nb41.25Ta13.75Ir45,4.35,Nb41.25 Ta13.75 Ir45,"[Element Nb, Element Ta, Element Ir]","{'Nb': 41.25, 'Ta': 13.75, 'Ir': 45.0}",Other,3
Nb27.5Ta27.5Ir45,3.935,Nb27.5 Ta27.5 Ir45,"[Element Nb, Element Ta, Element Ir]","{'Nb': 27.5, 'Ta': 27.5, 'Ir': 45.0}",Other,3
Nb13.75Ta41.25Ir45,3.315,Nb13.75 Ta41.25 Ir45,"[Element Nb, Element Ta, Element Ir]","{'Nb': 13.75, 'Ta': 41.25, 'Ir': 45.0}",Other,3
Co14.3U85.7,0.78,Co14.3 U85.7,"[Element Co, Element U]","{'Co': 14.3, 'U': 85.7}",Other,2
Co28U72,0.6,Co28 U72,"[Element Co, Element U]","{'Co': 28.0, 'U': 72.0}",Other,2
Fe14.3U85.7,1.0,Fe14.3 U85.7,"[Element Fe, Element U]","{'Fe': 14.3, 'U': 85.7}",Fe-based,2
Fe22U78,0.98,Fe22 U78,"[Element Fe, Element U]","{'Fe': 22.0, 'U': 78.0}",Fe-based,2
Ni14.3U85.7,0.53,Ni14.3 U85.7,"[Element Ni, Element U]","{'Ni': 14.3, 'U': 85.7}",Other,2
Ni25Th75,3.7,Ni25 Th75,"[Element Ni, Element Th]","{'Ni': 25.0, 'Th': 75.0}",Other,2
Co20Th80,3.8,Co20 Th80,"[Element Co, Element Th]","{'Co': 20.0, 'Th': 80.0}",Other,2
Nb82Si18,4.4,Nb82 Si18,"[Element Nb, Element Si]","{'Nb': 82.0, 'Si': 18.0}",Other,2
Nb81Si19,4.35,Nb81 Si19,"[Element Nb, Element Si]","{'Nb': 81.0, 'Si': 19.0}",Other,2
Nb80Si20,4.23,Nb80 Si20,"[Element Nb, Element Si]","{'Nb': 80.0, 'Si': 20.0}",Other,2
Nb70Mo10Si20,4.8,Nb70 Mo10 Si20,"[Element Nb, Element Mo, Element Si]","{'Nb': 70.0, 'Mo': 10.0, 'Si': 20.0}",Other,3
Nb60Mo20Si20,5.0,Nb60 Mo20 Si20,"[Element Nb, Element Mo, Element Si]","{'Nb': 60.0, 'Mo': 20.0, 'Si': 20.0}",Other,3
Nb55Mo25Si20,5.3,Nb55 Mo25 Si20,"[Element Nb, Element Mo, Element Si]","{'Nb': 55.0, 'Mo': 25.0, 'Si': 20.0}",Other,3
Nb80Si16C4,4.5,Nb80 Si16 C4,"[Element Nb, Element Si, Element C]","{'Nb': 80.0, 'Si': 16.0, 'C': 4.0}",Other,3
Nb80Si16Ge4,4.7,Nb80 Si16 Ge4,"[Element Nb, Element Si, Element Ge]","{'Nb': 80.0, 'Si': 16.0, 'Ge': 4.0}",Other,3
Nb80Si16B4,4.7,Nb80 Si16 B4,"[Element Nb, Element Si, Element B]","{'Nb': 80.0, 'Si': 16.0, 'B': 4.0}",Other,3
La9Br5B3C6,6.0,La9 Br5 B3 C6,"[Element La, Element Br, Element B, Element C]","{'La': 9.0, 'Br': 5.0, 'B': 3.0, 'C': 6.0}",Other,4
Ce0.99La0.01Pt3Si1,0.57,Ce0.99 La0.01 Pt3 Si1,"[Element Ce, Element La, Element Pt, Element Si]","{'Ce': 0.99, 'La': 0.01, 'Pt': 3.0, 'Si': 1.0}",Other,4
Ce0.985La0.015Pt3Si1,0.15,Ce0.985 La0.015 Pt3 Si1,"[Element Ce, Element La, Element Pt, Element Si]","{'Ce': 0.985, 'La': 0.015, 'Pt': 3.0, 'Si': 1.0}",Other,4
Ce0.98La0.02Pt3Si1,0.03,Ce0.98 La0.02 Pt3 Si1,"[Element Ce, Element La, Element Pt, Element Si]","{'Ce': 0.98, 'La': 0.02, 'Pt': 3.0, 'Si': 1.0}",Other,4
Cu1.3K0.2Co1.5S4,4.4,Cu1.3 K0.2 Co1.5 S4,"[Element Cu, Element K, Element Co, Element S]","{'Cu': 1.3, 'K': 0.2, 'Co': 1.5, 'S': 4.0}",Other,4
Pr1Os3.8Ru0.2Sb12,1.63,Pr1 Os3.8 Ru0.2 Sb12,"[Element Pr, Element Os, Element Ru, Element Sb]","{'Pr': 1.0, 'Os': 3.8, 'Ru': 0.2, 'Sb': 12.0}",Other,4
Pr1Os3.6Ru0.4Sb12,1.62,Pr1 Os3.6 Ru0.4 Sb12,"[Element Pr, Element Os, Element Ru, Element Sb]","{'Pr': 1.0, 'Os': 3.6, 'Ru': 0.4, 'Sb': 12.0}",Other,4
Pr1Os3.2Ru0.8Sb12,1.54,Pr1 Os3.2 Ru0.8 Sb12,"[Element Pr, Element Os, Element Ru, Element Sb]","{'Pr': 1.0, 'Os': 3.2, 'Ru': 0.8, 'Sb': 12.0}",Other,4
Pr1Os2.4Ru1.6Sb12,1.21,Pr1 Os2.4 Ru1.6 Sb12,"[Element Pr, Element Os, Element Ru, Element Sb]","{'Pr': 1.0, 'Os': 2.4, 'Ru': 1.6, 'Sb': 12.0}",Other,4
Pr1Os1.6Ru2.4Sb12,0.75,Pr1 Os1.6 Ru2.4 Sb12,"[Element Pr, Element Os, Element Ru, Element Sb]","{'Pr': 1.0, 'Os': 1.6, 'Ru': 2.4, 'Sb': 12.0}",Other,4
Pr1Os0.6Ru3.4Sb12,0.94,Pr1 Os0.6 Ru3.4 Sb12,"[Element Pr, Element Os, Element Ru, Element Sb]","{'Pr': 1.0, 'Os': 0.6, 'Ru': 3.4, 'Sb': 12.0}",Other,4
Lu4Co6Sn19,1.5,Lu4 Co6 Sn19,"[Element Lu, Element Co, Element Sn]","{'Lu': 4.0, 'Co': 6.0, 'Sn': 19.0}",Other,3
Sc4Rh6Sn19,4.5,Sc4 Rh6 Sn19,"[Element Sc, Element Rh, Element Sn]","{'Sc': 4.0, 'Rh': 6.0, 'Sn': 19.0}",Other,3
Er4Rh6Sn19,1.2,Er4 Rh6 Sn19,"[Element Er, Element Rh, Element Sn]","{'Er': 4.0, 'Rh': 6.0, 'Sn': 19.0}",Other,3
Tm4Rh6Sn19,2.3,Tm4 Rh6 Sn19,"[Element Tm, Element Rh, Element Sn]","{'Tm': 4.0, 'Rh': 6.0, 'Sn': 19.0}",Other,3
Lu4Rh6Sn19,4.0,Lu4 Rh6 Sn19,"[Element Lu, Element Rh, Element Sn]","{'Lu': 4.0, 'Rh': 6.0, 'Sn': 19.0}",Other,3
Sc4Ir6Sn19,1.1,Sc4 Ir6 Sn19,"[Element Sc, Element Ir, Element Sn]","{'Sc': 4.0, 'Ir': 6.0, 'Sn': 19.0}",Other,3
Lu4Ir6Sn19,3.2,Lu4 Ir6 Sn19,"[Element Lu, Element Ir, Element Sn]","{'Lu': 4.0, 'Ir': 6.0, 'Sn': 19.0}",Other,3
Tl1Mo3Te3,5.84,Tl1 Mo3 Te3,"[Element Tl, Element Mo, Element Te]","{'Tl': 1.0, 'Mo': 3.0, 'Te': 3.0}",Other,3