chemical_formula,Tc,composition,elements,stoichiometry,Category,num_elements
La1.83Sr0.17Cu0.97Ni0.03O4,14.4,La1.83 Sr0.17 Cu0.97 Ni0.03 O4,"[Element La, Element Sr, Element Cu, Element Ni, Element O]","{'La': 1.83, 'Sr': 0.17, 'Cu': 0.97, 'Ni': 0.03, 'O': 4.0}",Cuprates,5
La1.83Sr0.17Cu0.96Ni0.04O4,5.8,La1.83 Sr0.17 Cu0.96 Ni0.04 O4,"[Element La, Element Sr, Element Cu, Element Ni, Element O]","{'La': 1.83, 'Sr': 0.17, 'Cu': 0.96, 'Ni': 0.04, 'O': 4.0}",Cuprates,5
La1.8Sr0.2Cu0.98Ni0.02O4,17.1,La1.8 Sr0.2 Cu0.98 Ni0.02 O4,"[Element La, Element Sr, Element Cu, Element Ni, Element O]","{'La': 1.8, 'Sr': 0.2, 'Cu': 0.98, 'Ni': 0.02, 'O': 4.0}",Cuprates,5
La1.8Sr0.2Cu0.97Ni0.03O4,11.1,La1.8 Sr0.2 Cu0.97 Ni0.03 O4,"[Element La, Element Sr, Element Cu, Element Ni, Element O]","{'La': 1.8, 'Sr': 0.2, 'Cu': 0.97, 'Ni': 0.03, 'O': 4.0}",Cuprates,5
La1.8Sr0.2Cu0.96Ni0.04O4,7.0,La1.8 Sr0.2 Cu0.96 Ni0.04 O4,"[Element La, Element Sr, Element Cu, Element Ni, Element O]","{'La': 1.8, 'Sr': 0.2, 'Cu': 0.96, 'Ni': 0.04, 'O': 4.0}",Cuprates,5
La1.75Sr0.25Cu0.96Ni0.04O4,33.6,La1.75 Sr0.25 Cu0.96 Ni0.04 O4,"[Element La, Element Sr, Element Cu, Element Ni, Element O]","{'La': 1.75, 'Sr': 0.25, 'Cu': 0.96, 'Ni': 0.04, 'O': 4.0}",Cuprates,5
Bi2Sr2Ca1Cu2O8.231,83.7,Bi2 Sr2 Ca1 Cu2 O8.231,"[Element Bi, Element Sr, Element Ca, Element Cu, Element O]","{'Bi': 2.0, 'Sr': 2.0, 'Ca': 1.0, 'Cu': 2.0, 'O': 8.231}",Cuprates,5
Bi2Sr2Ca1Cu2O8.329,47.3,Bi2 Sr2 Ca1 Cu2 O8.329,"[Element Bi, Element Sr, Element Ca, Element Cu, Element O]","{'Bi': 2.0, 'Sr': 2.0, 'Ca': 1.0, 'Cu': 2.0, 'O': 8.329}",Cuprates,5
Bi2Sr2Ca1Cu2O8.373,47.2,Bi2 Sr2 Ca1 Cu2 O8.373,"[Element Bi, Element Sr, Element Ca, Element Cu, Element O]","{'Bi': 2.0, 'Sr': 2.0, 'Ca': 1.0, 'Cu': 2.0, 'O': 8.373}",Cuprates,5
Bi2Sr2Ca1Cu2O8.428,42.1,Bi2 Sr2 Ca1 Cu2 O8.428,"[Element Bi, Element Sr, Element Ca, Element Cu, Element O]","{'Bi': 2.0, 'Sr': 2.0, 'Ca': 1.0, 'Cu': 2.0, 'O': 8.428}",Cuprates,5
Bi2Sr2Ca1Cu2O8.256,67.2,Bi2 Sr2 Ca1 Cu2 O8.256,"[Element Bi, Element Sr, Element Ca, Element Cu, Element O]","{'Bi': 2.0, 'Sr': 2.0, 'Ca': 1.0, 'Cu': 2.0, 'O': 8.256}",Cuprates,5
La1.95Ba0.05Cu1O4,33.6,La1.95 Ba0.05 Cu1 O4,"[Element La, Element Ba, Element Cu, Element O]","{'La': 1.95, 'Ba': 0.05, 'Cu': 1.0, 'O': 4.0}",Cuprates,4
Na1N1C60,14.7,Na1 N1 C60,"[Element Na, Element N, Element C]","{'Na': 1.0, 'N': 1.0, 'C': 60.0}",Other,3
Sr1Cu1O2,91.0,Sr1 Cu1 O2,"[Element Sr, Element Cu, Element O]","{'Sr': 1.0, 'Cu': 1.0, 'O': 2.0}",Cuprates,3
Ca0.285Sr0.665Cu1O2,110.0,Ca0.285 Sr0.665 Cu1 O2,"[Element Ca, Element Sr, Element Cu, Element O]","{'Ca': 0.285, 'Sr': 0.665, 'Cu': 1.0, 'O': 2.0}",Cuprates,4
Sr0.92Sm0.08Cu1O2,43.0,Sr0.92 Sm0.08 Cu1 O2,"[Element Sr, Element Sm, Element Cu, Element O]","{'Sr': 0.92, 'Sm': 0.08, 'Cu': 1.0, 'O': 2.0}",Cuprates,4
Sr0.9La0.1Cu1O2,43.0,Sr0.9 La0.1 Cu1 O2,"[Element Sr, Element La, Element Cu, Element O]","{'Sr': 0.9, 'La': 0.1, 'Cu': 1.0, 'O': 2.0}",Cuprates,4
La1.9Sr0.1Cu1H0.1O4,28.9,La1.9 Sr0.1 Cu1 H0.1 O4,"[Element La, Element Sr, Element Cu, Element H, Element O]","{'La': 1.9, 'Sr': 0.1, 'Cu': 1.0, 'H': 0.1, 'O': 4.0}",Cuprates,5
La1.85Sr0.15Cu1H0.1O4,35.4,La1.85 Sr0.15 Cu1 H0.1 O4,"[Element La, Element Sr, Element Cu, Element H, Element O]","{'La': 1.85, 'Sr': 0.15, 'Cu': 1.0, 'H': 0.1, 'O': 4.0}",Cuprates,5
La1.8Sr0.2Cu1H0.1O4,35.5,La1.8 Sr0.2 Cu1 H0.1 O4,"[Element La, Element Sr, Element Cu, Element H, Element O]","{'La': 1.8, 'Sr': 0.2, 'Cu': 1.0, 'H': 0.1, 'O': 4.0}",Cuprates,5
La1.75Sr0.25Cu1H0.1O4,26.8,La1.75 Sr0.25 Cu1 H0.1 O4,"[Element La, Element Sr, Element Cu, Element H, Element O]","{'La': 1.75, 'Sr': 0.25, 'Cu': 1.0, 'H': 0.1, 'O': 4.0}",Cuprates,5
Tl1Sr2Ca1Cu2O7,73.0,Tl1 Sr2 Ca1 Cu2 O7,"[Element Tl, Element Sr, Element Ca, Element Cu, Element O]","{'Tl': 1.0, 'Sr': 2.0, 'Ca': 1.0, 'Cu': 2.0, 'O': 7.0}",Cuprates,5
Bi1.6Pb0.4Sr4Cu2C1O11,41.0,Bi1.6 Pb0.4 Sr4 Cu2 C1 O11,"[Element Bi, Element Pb, Element Sr, Element Cu, Element C, Element O]","{'Bi': 1.6, 'Pb': 0.4, 'Sr': 4.0, 'Cu': 2.0, 'C': 1.0, 'O': 11.0}",Cuprates,6
Bi1.6Pb0.4Sr6Cu3C2O16,54.0,Bi1.6 Pb0.4 Sr6 Cu3 C2 O16,"[Element Bi, Element Pb, Element Sr, Element Cu, Element C, Element O]","{'Bi': 1.6, 'Pb': 0.4, 'Sr': 6.0, 'Cu': 3.0, 'C': 2.0, 'O': 16.0}",Cuprates,6
Sr2Cu1C0.85B0.15O5,32.0,Sr2 Cu1 C0.85 B0.15 O5,"[Element Sr, Element Cu, Element C, Element B, Element O]","{'Sr': 2.0, 'Cu': 1.0, 'C': 0.85, 'B': 0.15, 'O': 5.0}",Cuprates,5
Sr15.9Ca7.6Cu17.6C3.3B2.6O53,105.0,Sr15.9 Ca7.6 Cu17.6 C3.3 B2.6 O53,"[Element Sr, Element Ca, Element Cu, Element C, Element B, Element O]","{'Sr': 15.9, 'Ca': 7.6, 'Cu': 17.6, 'C': 3.3, 'B': 2.6, 'O': 53.0}",Cuprates,6
La1.945Rb0.055Cu1O4,22.0,La1.945 Rb0.055 Cu1 O4,"[Element La, Element Rb, Element Cu, Element O]","{'La': 1.945, 'Rb': 0.055, 'Cu': 1.0, 'O': 4.0}",Cuprates,4
La1.935K0.065Cu1O4,20.0,La1.935 K0.065 Cu1 O4,"[Element La, Element K, Element Cu, Element O]","{'La': 1.935, 'K': 0.065, 'Cu': 1.0, 'O': 4.0}",Cuprates,4
La1.929Na0.071Cu1O4,28.0,La1.929 Na0.071 Cu1 O4,"[Element La, Element Na, Element Cu, Element O]","{'La': 1.929, 'Na': 0.071, 'Cu': 1.0, 'O': 4.0}",Cuprates,4
Tl1Ba2Ca3Cu4O11,114.0,Tl1 Ba2 Ca3 Cu4 O11,"[Element Tl, Element Ba, Element Ca, Element Cu, Element O]","{'Tl': 1.0, 'Ba': 2.0, 'Ca': 3.0, 'Cu': 4.0, 'O': 11.0}",Cuprates,5
Bi1.95Sr1.85La0.2Cu1O4,27.0,Bi1.95 Sr1.85 La0.2 Cu1 O4,"[Element Bi, Element Sr, Element La, Element Cu, Element O]","{'Bi': 1.95, 'Sr': 1.85, 'La': 0.2, 'Cu': 1.0, 'O': 4.0}",Cuprates,5
Bi1.95Sr1.75La0.3Cu1O4,33.0,Bi1.95 Sr1.75 La0.3 Cu1 O4,"[Element Bi, Element Sr, Element La, Element Cu, Element O]","{'Bi': 1.95, 'Sr': 1.75, 'La': 0.3, 'Cu': 1.0, 'O': 4.0}",Cuprates,5
Bi1.95Sr1.65La0.4Cu1O4,36.0,Bi1.95 Sr1.65 La0.4 Cu1 O4,"[Element Bi, Element Sr, Element La, Element Cu, Element O]","{'Bi': 1.95, 'Sr': 1.65, 'La': 0.4, 'Cu': 1.0, 'O': 4.0}",Cuprates,5
Bi1.95Sr1.45La0.6Cu1O4,24.0,Bi1.95 Sr1.45 La0.6 Cu1 O4,"[Element Bi, Element Sr, Element La, Element Cu, Element O]","{'Bi': 1.95, 'Sr': 1.45, 'La': 0.6, 'Cu': 1.0, 'O': 4.0}",Cuprates,5
Bi1.95Sr1.25La0.8Cu1O4,19.0,Bi1.95 Sr1.25 La0.8 Cu1 O4,"[Element Bi, Element Sr, Element La, Element Cu, Element O]","{'Bi': 1.95, 'Sr': 1.25, 'La': 0.8, 'Cu': 1.0, 'O': 4.0}",Cuprates,5
Bi1.95Sr1.85Pr0.2Cu1O4,28.0,Bi1.95 Sr1.85 Pr0.2 Cu1 O4,"[Element Bi, Element Sr, Element Pr, Element Cu, Element O]","{'Bi': 1.95, 'Sr': 1.85, 'Pr': 0.2, 'Cu': 1.0, 'O': 4.0}",Cuprates,5
Bi1.95Sr1.75Pr0.3Cu1O4,32.0,Bi1.95 Sr1.75 Pr0.3 Cu1 O4,"[Element Bi, Element Sr, Element Pr, Element Cu, Element O]","{'Bi': 1.95, 'Sr': 1.75, 'Pr': 0.3, 'Cu': 1.0, 'O': 4.0}",Cuprates,5
Bi1.95Sr1.65Pr0.4Cu1O4,35.0,Bi1.95 Sr1.65 Pr0.4 Cu1 O4,"[Element Bi, Element Sr, Element Pr, Element Cu, Element O]","{'Bi': 1.95, 'Sr': 1.65, 'Pr': 0.4, 'Cu': 1.0, 'O': 4.0}",Cuprates,5
Bi1.95Sr1.45Pr0.6Cu1O4,22.0,Bi1.95 Sr1.45 Pr0.6 Cu1 O4,"[Element Bi, Element Sr, Element Pr, Element Cu, Element O]","{'Bi': 1.95, 'Sr': 1.45, 'Pr': 0.6, 'Cu': 1.0, 'O': 4.0}",Cuprates,5
Bi1.95Sr1.25Pr0.8Cu1O4,17.0,Bi1.95 Sr1.25 Pr0.8 Cu1 O4,"[Element Bi, Element Sr, Element Pr, Element Cu, Element O]","{'Bi': 1.95, 'Sr': 1.25, 'Pr': 0.8, 'Cu': 1.0, 'O': 4.0}",Cuprates,5
Bi1.6Pb0.4Sr1.6La0.4Cu1O4,36.0,Bi1.6 Pb0.4 Sr1.6 La0.4 Cu1 O4,"[Element Bi, Element Pb, Element Sr, Element La, Element Cu, Element O]","{'Bi': 1.6, 'Pb': 0.4, 'Sr': 1.6, 'La': 0.4, 'Cu': 1.0, 'O': 4.0}",Cuprates,6
La1.83Sr0.17Cu0.65Ni0.35O4,13.5,La1.83 Sr0.17 Cu0.65 Ni0.35 O4,"[Element La, Element Sr, Element Cu, Element Ni, Element O]","{'La': 1.83, 'Sr': 0.17, 'Cu': 0.65, 'Ni': 0.35, 'O': 4.0}",Cuprates,5
La1.8Sr0.2Cu0.99Ni0.01O4,23.4,La1.8 Sr0.2 Cu0.99 Ni0.01 O4,"[Element La, Element Sr, Element Cu, Element Ni, Element O]","{'La': 1.8, 'Sr': 0.2, 'Cu': 0.99, 'Ni': 0.01, 'O': 4.0}",Cuprates,5
La1.8Sr0.2Cu0.65Ni0.35O4,8.0,La1.8 Sr0.2 Cu0.65 Ni0.35 O4,"[Element La, Element Sr, Element Cu, Element Ni, Element O]","{'La': 1.8, 'Sr': 0.2, 'Cu': 0.65, 'Ni': 0.35, 'O': 4.0}",Cuprates,5
La1.9Sr0.1Cu0.99Ni0.01O4,11.5,La1.9 Sr0.1 Cu0.99 Ni0.01 O4,"[Element La, Element Sr, Element Cu, Element Ni, Element O]","{'La': 1.9, 'Sr': 0.1, 'Cu': 0.99, 'Ni': 0.01, 'O': 4.0}",Cuprates,5
La0.75Sr0.25Cu1O4,14.4,La0.75 Sr0.25 Cu1 O4,"[Element La, Element Sr, Element Cu, Element O]","{'La': 0.75, 'Sr': 0.25, 'Cu': 1.0, 'O': 4.0}",Cuprates,4
La1.75Sr0.25Cu0.98Ni0.02O4,8.1,La1.75 Sr0.25 Cu0.98 Ni0.02 O4,"[Element La, Element Sr, Element Cu, Element Ni, Element O]","{'La': 1.75, 'Sr': 0.25, 'Cu': 0.98, 'Ni': 0.02, 'O': 4.0}",Cuprates,5
La1.75Sr0.25Cu0.97Ni0.03O4,4.7,La1.75 Sr0.25 Cu0.97 Ni0.03 O4,"[Element La, Element Sr, Element Cu, Element Ni, Element O]","{'La': 1.75, 'Sr': 0.25, 'Cu': 0.97, 'Ni': 0.03, 'O': 4.0}",Cuprates,5
La1.83Sr0.17Cu0.99Ni0.01O4,31.2,La1.83 Sr0.17 Cu0.99 Ni0.01 O4,"[Element La, Element Sr, Element Cu, Element Ni, Element O]","{'La': 1.83, 'Sr': 0.17, 'Cu': 0.99, 'Ni': 0.01, 'O': 4.0}",Cuprates,5
C1Ba3Ca3Cu5O13,113.0,C1 Ba3 Ca3 Cu5 O13,"[Element C, Element Ba, Element Ca, Element Cu, Element O]","{'C': 1.0, 'Ba': 3.0, 'Ca': 3.0, 'Cu': 5.0, 'O': 13.0}",Cuprates,5
Sm1Ba2Cu3O6.73,45.0,Sm1 Ba2 Cu3 O6.73,"[Element Sm, Element Ba, Element Cu, Element O]","{'Sm': 1.0, 'Ba': 2.0, 'Cu': 3.0, 'O': 6.73}",Cuprates,4
Sm1.27Ba1.73Cu3O7.05,50.0,Sm1.27 Ba1.73 Cu3 O7.05,"[Element Sm, Element Ba, Element Cu, Element O]","{'Sm': 1.27, 'Ba': 1.73, 'Cu': 3.0, 'O': 7.05}",Cuprates,4
Tm1.83Ca0.17Cu1O3.99,30.0,Tm1.83 Ca0.17 Cu1 O3.99,"[Element Tm, Element Ca, Element Cu, Element O]","{'Tm': 1.83, 'Ca': 0.17, 'Cu': 1.0, 'O': 3.99}",Cuprates,4
Tl1.7Ba2Cu1O6,24.0,Tl1.7 Ba2 Cu1 O6,"[Element Tl, Element Ba, Element Cu, Element O]","{'Tl': 1.7, 'Ba': 2.0, 'Cu': 1.0, 'O': 6.0}",Cuprates,4
Tl1.8Ba2Ca0.85Cu2.2O8,104.0,Tl1.8 Ba2 Ca0.85 Cu2.2 O8,"[Element Tl, Element Ba, Element Ca, Element Cu, Element O]","{'Tl': 1.8, 'Ba': 2.0, 'Ca': 0.85, 'Cu': 2.2, 'O': 8.0}",Cuprates,5
Hg1Ba2Ca1Cu2O6.24,126.0,Hg1 Ba2 Ca1 Cu2 O6.24,"[Element Hg, Element Ba, Element Ca, Element Cu, Element O]","{'Hg': 1.0, 'Ba': 2.0, 'Ca': 1.0, 'Cu': 2.0, 'O': 6.24}",Cuprates,5
Hg1Ba2Ca1Cu2O6.08,92.0,Hg1 Ba2 Ca1 Cu2 O6.08,"[Element Hg, Element Ba, Element Ca, Element Cu, Element O]","{'Hg': 1.0, 'Ba': 2.0, 'Ca': 1.0, 'Cu': 2.0, 'O': 6.08}",Cuprates,5
Bi2Sr8Cu4C3O21,34.0,Bi2 Sr8 Cu4 C3 O21,"[Element Bi, Element Sr, Element Cu, Element C, Element O]","{'Bi': 2.0, 'Sr': 8.0, 'Cu': 4.0, 'C': 3.0, 'O': 21.0}",Cuprates,5
BaKBi1O3,30.9,Ba1 K1 Bi1 O3,"[Element Ba, Element K, Element Bi, Element O]","{'Ba': 1.0, 'K': 1.0, 'Bi': 1.0, 'O': 3.0}",Other,4
Bi2Sr2Ca0.95Ce0.05Cu2O8,80.0,Bi2 Sr2 Ca0.95 Ce0.05 Cu2 O8,"[Element Bi, Element Sr, Element Ca, Element Ce, Element Cu, Element O]","{'Bi': 2.0, 'Sr': 2.0, 'Ca': 0.95, 'Ce': 0.05, 'Cu': 2.0, 'O': 8.0}",Cuprates,6
Bi2Sr2Ca0.9Ce0.1Cu2O8,75.455,Bi2 Sr2 Ca0.9 Ce0.1 Cu2 O8,"[Element Bi, Element Sr, Element Ca, Element Ce, Element Cu, Element O]","{'Bi': 2.0, 'Sr': 2.0, 'Ca': 0.9, 'Ce': 0.1, 'Cu': 2.0, 'O': 8.0}",Cuprates,6
Bi2Sr2Ca0.8Ce0.2Cu2O8,17.0,Bi2 Sr2 Ca0.8 Ce0.2 Cu2 O8,"[Element Bi, Element Sr, Element Ca, Element Ce, Element Cu, Element O]","{'Bi': 2.0, 'Sr': 2.0, 'Ca': 0.8, 'Ce': 0.2, 'Cu': 2.0, 'O': 8.0}",Cuprates,6
Bi2Sr2Ca0.95Pr0.05Cu2O8,83.15,Bi2 Sr2 Ca0.95 Pr0.05 Cu2 O8,"[Element Bi, Element Sr, Element Ca, Element Pr, Element Cu, Element O]","{'Bi': 2.0, 'Sr': 2.0, 'Ca': 0.95, 'Pr': 0.05, 'Cu': 2.0, 'O': 8.0}",Cuprates,6
Bi2Sr2Ca0.9Pr0.1Cu2O8,60.5,Bi2 Sr2 Ca0.9 Pr0.1 Cu2 O8,"[Element Bi, Element Sr, Element Ca, Element Pr, Element Cu, Element O]","{'Bi': 2.0, 'Sr': 2.0, 'Ca': 0.9, 'Pr': 0.1, 'Cu': 2.0, 'O': 8.0}",Cuprates,6
Bi2Sr2Ca0.85Pr0.15Cu2O8,68.35,Bi2 Sr2 Ca0.85 Pr0.15 Cu2 O8,"[Element Bi, Element Sr, Element Ca, Element Pr, Element Cu, Element O]","{'Bi': 2.0, 'Sr': 2.0, 'Ca': 0.85, 'Pr': 0.15, 'Cu': 2.0, 'O': 8.0}",Cuprates,6
Bi2Sr2Ca1Cu1.99Fe0.01O8,74.1,Bi2 Sr2 Ca1 Cu1.99 Fe0.01 O8,"[Element Bi, Element Sr, Element Ca, Element Cu, Element Fe, Element O]","{'Bi': 2.0, 'Sr': 2.0, 'Ca': 1.0, 'Cu': 1.99, 'Fe': 0.01, 'O': 8.0}",Cuprates,6
Bi2Sr2Ca1Cu1.98Fe0.02O8,71.5,Bi2 Sr2 Ca1 Cu1.98 Fe0.02 O8,"[Element Bi, Element Sr, Element Ca, Element Cu, Element Fe, Element O]","{'Bi': 2.0, 'Sr': 2.0, 'Ca': 1.0, 'Cu': 1.98, 'Fe': 0.02, 'O': 8.0}",Cuprates,6
Bi2Sr2Ca1Cu1.96Fe0.04O8,65.7,Bi2 Sr2 Ca1 Cu1.96 Fe0.04 O8,"[Element Bi, Element Sr, Element Ca, Element Cu, Element Fe, Element O]","{'Bi': 2.0, 'Sr': 2.0, 'Ca': 1.0, 'Cu': 1.96, 'Fe': 0.04, 'O': 8.0}",Cuprates,6
Tl0.5Pb0.5Sr2Ca2Cu3O9,115.0,Tl0.5 Pb0.5 Sr2 Ca2 Cu3 O9,"[Element Tl, Element Pb, Element Sr, Element Ca, Element Cu, Element O]","{'Tl': 0.5, 'Pb': 0.5, 'Sr': 2.0, 'Ca': 2.0, 'Cu': 3.0, 'O': 9.0}",Cuprates,6
La2Cu1O4.08,32.0,La2 Cu1 O4.08,"[Element La, Element Cu, Element O]","{'La': 2.0, 'Cu': 1.0, 'O': 4.08}",Cuprates,3
La2Cu1O4.12,43.0,La2 Cu1 O4.12,"[Element La, Element Cu, Element O]","{'La': 2.0, 'Cu': 1.0, 'O': 4.12}",Cuprates,3
Sr2Ho1Cu3O,62.0,Sr2 Ho1 Cu3 O1,"[Element Sr, Element Ho, Element Cu, Element O]","{'Sr': 2.0, 'Ho': 1.0, 'Cu': 3.0, 'O': 1.0}",Cuprates,4
Ba1.7K0.3Pb0.95Bi0.05O4,11.0,Ba1.7 K0.3 Pb0.95 Bi0.05 O4,"[Element Ba, Element K, Element Pb, Element Bi, Element O]","{'Ba': 1.7, 'K': 0.3, 'Pb': 0.95, 'Bi': 0.05, 'O': 4.0}",Other,5
Ba1.9K0.1Pb0.85Bi0.15O4,12.5,Ba1.9 K0.1 Pb0.85 Bi0.15 O4,"[Element Ba, Element K, Element Pb, Element Bi, Element O]","{'Ba': 1.9, 'K': 0.1, 'Pb': 0.85, 'Bi': 0.15, 'O': 4.0}",Other,5
Ba1.7K0.3Pb0.9Bi0.1O4,11.0,Ba1.7 K0.3 Pb0.9 Bi0.1 O4,"[Element Ba, Element K, Element Pb, Element Bi, Element O]","{'Ba': 1.7, 'K': 0.3, 'Pb': 0.9, 'Bi': 0.1, 'O': 4.0}",Other,5
Hg1Ba2Ca2Cu3O8.41,133.0,Hg1 Ba2 Ca2 Cu3 O8.41,"[Element Hg, Element Ba, Element Ca, Element Cu, Element O]","{'Hg': 1.0, 'Ba': 2.0, 'Ca': 2.0, 'Cu': 3.0, 'O': 8.41}",Cuprates,5
Hg1Ba2Ca1Cu2O6.22,127.0,Hg1 Ba2 Ca1 Cu2 O6.22,"[Element Hg, Element Ba, Element Ca, Element Cu, Element O]","{'Hg': 1.0, 'Ba': 2.0, 'Ca': 1.0, 'Cu': 2.0, 'O': 6.22}",Cuprates,5
Er1Ba2Cu3O6.935,88.0,Er1 Ba2 Cu3 O6.935,"[Element Er, Element Ba, Element Cu, Element O]","{'Er': 1.0, 'Ba': 2.0, 'Cu': 3.0, 'O': 6.935}",Cuprates,4
Er0.95Ca0.05Ba2Cu3O6.935,86.0,Er0.95 Ca0.05 Ba2 Cu3 O6.935,"[Element Er, Element Ca, Element Ba, Element Cu, Element O]","{'Er': 0.95, 'Ca': 0.05, 'Ba': 2.0, 'Cu': 3.0, 'O': 6.935}",Cuprates,5
Er0.9Ca0.1Ba2Cu3O6.93,82.5,Er0.9 Ca0.1 Ba2 Cu3 O6.93,"[Element Er, Element Ca, Element Ba, Element Cu, Element O]","{'Er': 0.9, 'Ca': 0.1, 'Ba': 2.0, 'Cu': 3.0, 'O': 6.93}",Cuprates,5
Er0.85Ca0.15Ba2Cu3O6.93,79.5,Er0.85 Ca0.15 Ba2 Cu3 O6.93,"[Element Er, Element Ca, Element Ba, Element Cu, Element O]","{'Er': 0.85, 'Ca': 0.15, 'Ba': 2.0, 'Cu': 3.0, 'O': 6.93}",Cuprates,5
Er0.8Ca0.2Ba2Cu3O6.91,76.5,Er0.8 Ca0.2 Ba2 Cu3 O6.91,"[Element Er, Element Ca, Element Ba, Element Cu, Element O]","{'Er': 0.8, 'Ca': 0.2, 'Ba': 2.0, 'Cu': 3.0, 'O': 6.91}",Cuprates,5
Er0.75Ca0.25Ba2Cu3O6.88,67.5,Er0.75 Ca0.25 Ba2 Cu3 O6.88,"[Element Er, Element Ca, Element Ba, Element Cu, Element O]","{'Er': 0.75, 'Ca': 0.25, 'Ba': 2.0, 'Cu': 3.0, 'O': 6.88}",Cuprates,5
Er0.7Ca0.3Ba2Cu3O6.83,55.7,Er0.7 Ca0.3 Ba2 Cu3 O6.83,"[Element Er, Element Ca, Element Ba, Element Cu, Element O]","{'Er': 0.7, 'Ca': 0.3, 'Ba': 2.0, 'Cu': 3.0, 'O': 6.83}",Cuprates,5
Er0.97Pr0.03Ba2Cu3O7,93.9,Er0.97 Pr0.03 Ba2 Cu3 O7,"[Element Er, Element Pr, Element Ba, Element Cu, Element O]","{'Er': 0.97, 'Pr': 0.03, 'Ba': 2.0, 'Cu': 3.0, 'O': 7.0}",Cuprates,5
Er0.924Pr0.076Ba2Cu3O7,91.1,Er0.924 Pr0.076 Ba2 Cu3 O7,"[Element Er, Element Pr, Element Ba, Element Cu, Element O]","{'Er': 0.924, 'Pr': 0.076, 'Ba': 2.0, 'Cu': 3.0, 'O': 7.0}",Cuprates,5
Er0.85Pr0.15Ba2Cu3O7,82.9,Er0.85 Pr0.15 Ba2 Cu3 O7,"[Element Er, Element Pr, Element Ba, Element Cu, Element O]","{'Er': 0.85, 'Pr': 0.15, 'Ba': 2.0, 'Cu': 3.0, 'O': 7.0}",Cuprates,5
Er0.8Pr0.2Ba2Cu3O7,76.4,Er0.8 Pr0.2 Ba2 Cu3 O7,"[Element Er, Element Pr, Element Ba, Element Cu, Element O]","{'Er': 0.8, 'Pr': 0.2, 'Ba': 2.0, 'Cu': 3.0, 'O': 7.0}",Cuprates,5
Er0.7Pr0.3Ba2Cu3O7,61.1,Er0.7 Pr0.3 Ba2 Cu3 O7,"[Element Er, Element Pr, Element Ba, Element Cu, Element O]","{'Er': 0.7, 'Pr': 0.3, 'Ba': 2.0, 'Cu': 3.0, 'O': 7.0}",Cuprates,5
Er0.6Pr0.4Ba2Cu3O7,45.8,Er0.6 Pr0.4 Ba2 Cu3 O7,"[Element Er, Element Pr, Element Ba, Element Cu, Element O]","{'Er': 0.6, 'Pr': 0.4, 'Ba': 2.0, 'Cu': 3.0, 'O': 7.0}",Cuprates,5
Er0.5Pr0.5Ba2Cu3O7,28.6,Er0.5 Pr0.5 Ba2 Cu3 O7,"[Element Er, Element Pr, Element Ba, Element Cu, Element O]","{'Er': 0.5, 'Pr': 0.5, 'Ba': 2.0, 'Cu': 3.0, 'O': 7.0}",Cuprates,5
Lu0.85Pr0.15Ba2Cu3O7,89.7,Lu0.85 Pr0.15 Ba2 Cu3 O7,"[Element Lu, Element Pr, Element Ba, Element Cu, Element O]","{'Lu': 0.85, 'Pr': 0.15, 'Ba': 2.0, 'Cu': 3.0, 'O': 7.0}",Cuprates,5
Lu0.8Pr0.2Ba2Cu3O7,86.8,Lu0.8 Pr0.2 Ba2 Cu3 O7,"[Element Lu, Element Pr, Element Ba, Element Cu, Element O]","{'Lu': 0.8, 'Pr': 0.2, 'Ba': 2.0, 'Cu': 3.0, 'O': 7.0}",Cuprates,5
Lu0.7Pr0.3Ba2Cu3O7,73.5,Lu0.7 Pr0.3 Ba2 Cu3 O7,"[Element Lu, Element Pr, Element Ba, Element Cu, Element O]","{'Lu': 0.7, 'Pr': 0.3, 'Ba': 2.0, 'Cu': 3.0, 'O': 7.0}",Cuprates,5
Lu0.6Pr0.4Ba2Cu3O7,59.1,Lu0.6 Pr0.4 Ba2 Cu3 O7,"[Element Lu, Element Pr, Element Ba, Element Cu, Element O]","{'Lu': 0.6, 'Pr': 0.4, 'Ba': 2.0, 'Cu': 3.0, 'O': 7.0}",Cuprates,5
La1.935Ca0.065Cu1O4,5.55,La1.935 Ca0.065 Cu1 O4,"[Element La, Element Ca, Element Cu, Element O]","{'La': 1.935, 'Ca': 0.065, 'Cu': 1.0, 'O': 4.0}",Cuprates,4
Ga1Sr2Ca3Cu4O10.8,93.0,Ga1 Sr2 Ca3 Cu4 O10.8,"[Element Ga, Element Sr, Element Ca, Element Cu, Element O]","{'Ga': 1.0, 'Sr': 2.0, 'Ca': 3.0, 'Cu': 4.0, 'O': 10.8}",Cuprates,5
Ga1Sr2Ca3Cu4O10.9,100.0,Ga1 Sr2 Ca3 Cu4 O10.9,"[Element Ga, Element Sr, Element Ca, Element Cu, Element O]","{'Ga': 1.0, 'Sr': 2.0, 'Ca': 3.0, 'Cu': 4.0, 'O': 10.9}",Cuprates,5
Ga1Sr2Ca3Cu4O11.,107.0,Ga1 Sr2 Ca3 Cu4 O11,"[Element Ga, Element Sr, Element Ca, Element Cu, Element O]","{'Ga': 1.0, 'Sr': 2.0, 'Ca': 3.0, 'Cu': 4.0, 'O': 11.0}",Cuprates,5
Ga1Sr2Ca3Cu4O11.1,107.0,Ga1 Sr2 Ca3 Cu4 O11.1,"[Element Ga, Element Sr, Element Ca, Element Cu, Element O]","{'Ga': 1.0, 'Sr': 2.0, 'Ca': 3.0, 'Cu': 4.0, 'O': 11.1}",Cuprates,5
Ga1Sr2Ca3Cu4O11.5,63.0,Ga1 Sr2 Ca3 Cu4 O11.5,"[Element Ga, Element Sr, Element Ca, Element Cu, Element O]","{'Ga': 1.0, 'Sr': 2.0, 'Ca': 3.0, 'Cu': 4.0, 'O': 11.5}",Cuprates,5
Pb2Sr2Ho0.5Ca0.5Cu3O8,78.5,Pb2 Sr2 Ho0.5 Ca0.5 Cu3 O8,"[Element Pb, Element Sr, Element Ho, Element Ca, Element Cu, Element O]","{'Pb': 2.0, 'Sr': 2.0, 'Ho': 0.5, 'Ca': 0.5, 'Cu': 3.0, 'O': 8.0}",Cuprates,6
Li0.5Nb1O2,5.0,Li0.5 Nb1 O2,"[Element Li, Element Nb, Element O]","{'Li': 0.5, 'Nb': 1.0, 'O': 2.0}",Other,3
Li0.45Nb1O2,5.5,Li0.45 Nb1 O2,"[Element Li, Element Nb, Element O]","{'Li': 0.45, 'Nb': 1.0, 'O': 2.0}",Other,3
Bi2Sr1.6La0.4Cu1O6.307,27.6,Bi2 Sr1.6 La0.4 Cu1 O6.307,"[Element Bi, Element Sr, Element La, Element Cu, Element O]","{'Bi': 2.0, 'Sr': 1.6, 'La': 0.4, 'Cu': 1.0, 'O': 6.307}",Cuprates,5
Bi2Sr1.6Pr0.4Cu1O6.313,21.8,Bi2 Sr1.6 Pr0.4 Cu1 O6.313,"[Element Bi, Element Sr, Element Pr, Element Cu, Element O]","{'Bi': 2.0, 'Sr': 1.6, 'Pr': 0.4, 'Cu': 1.0, 'O': 6.313}",Cuprates,5
Bi2Sr1.6Sm0.4Cu1O6.3,17.0,Bi2 Sr1.6 Sm0.4 Cu1 O6.3,"[Element Bi, Element Sr, Element Sm, Element Cu, Element O]","{'Bi': 2.0, 'Sr': 1.6, 'Sm': 0.4, 'Cu': 1.0, 'O': 6.3}",Cuprates,5
Bi2Sr1.6Eu0.4Cu1O6.301,12.5,Bi2 Sr1.6 Eu0.4 Cu1 O6.301,"[Element Bi, Element Sr, Element Eu, Element Cu, Element O]","{'Bi': 2.0, 'Sr': 1.6, 'Eu': 0.4, 'Cu': 1.0, 'O': 6.301}",Cuprates,5
Bi2Sr1.3La0.7Cu1O6.422,22.6,Bi2 Sr1.3 La0.7 Cu1 O6.422,"[Element Bi, Element Sr, Element La, Element Cu, Element O]","{'Bi': 2.0, 'Sr': 1.3, 'La': 0.7, 'Cu': 1.0, 'O': 6.422}",Cuprates,5
Bi2Sr1.3Sm0.7Cu1O6.405,8.0,Bi2 Sr1.3 Sm0.7 Cu1 O6.405,"[Element Bi, Element Sr, Element Sm, Element Cu, Element O]","{'Bi': 2.0, 'Sr': 1.3, 'Sm': 0.7, 'Cu': 1.0, 'O': 6.405}",Cuprates,5
Sr2Cu1F2.33O2,46.0,Sr2 Cu1 F2.33 O2,"[Element Sr, Element Cu, Element F, Element O]","{'Sr': 2.0, 'Cu': 1.0, 'F': 2.33, 'O': 2.0}",Cuprates,4