chemical_formula,Tc,composition,elements,stoichiometry,Category,num_elements
Mo0.4Nb0.6,0.6,Mo0.4 Nb0.6,"[Element Mo, Element Nb]","{'Mo': 0.4, 'Nb': 0.6}",Other,2
Mo0.7Nb0.3,0.016,Mo0.7 Nb0.3,"[Element Mo, Element Nb]","{'Mo': 0.7, 'Nb': 0.3}",Other,2
Mo1Na0.3S2,4.1,Mo1 Na0.3 S2,"[Element Mo, Element Na, Element S]","{'Mo': 1.0, 'Na': 0.3, 'S': 2.0}",Other,3
Mo6.35Pb1S8,12.6,Mo6.35 Pb1 S8,"[Element Mo, Element Pb, Element S]","{'Mo': 6.35, 'Pb': 1.0, 'S': 8.0}",Other,3
Mo6Pb0.92S7.5,15.2,Mo6 Pb0.92 S7.5,"[Element Mo, Element Pb, Element S]","{'Mo': 6.0, 'Pb': 0.92, 'S': 7.5}",Other,3
Mo5Pb1S7,12.5,Mo5 Pb1 S7,"[Element Mo, Element Pb, Element S]","{'Mo': 5.0, 'Pb': 1.0, 'S': 7.0}",Other,3
Mo5.1Pb1S6,14.4,Mo5.1 Pb1 S6,"[Element Mo, Element Pb, Element S]","{'Mo': 5.1, 'Pb': 1.0, 'S': 6.0}",Other,3
Mo5.1Pb0.9S6,13.2,Mo5.1 Pb0.9 S6,"[Element Mo, Element Pb, Element S]","{'Mo': 5.1, 'Pb': 0.9, 'S': 6.0}",Other,3
Mo0.15Pa0.85,3.08,Mo0.15 Pa0.85,"[Element Mo, Element Pa]","{'Mo': 0.15, 'Pa': 0.85}",Other,2
Mo4P3,2.5,Mo4 P3,"[Element Mo, Element P]","{'Mo': 4.0, 'P': 3.0}",Other,2
Mo3P1,5.31,Mo3 P1,"[Element Mo, Element P]","{'Mo': 3.0, 'P': 1.0}",Other,2
Mo3Os1,12.5,Mo3 Os1,"[Element Mo, Element Os]","{'Mo': 3.0, 'Os': 1.0}",Other,2
Mo0.62Os0.38,5.65,Mo0.62 Os0.38,"[Element Mo, Element Os]","{'Mo': 0.62, 'Os': 0.38}",Other,2
Mo1Os2,5.2,Mo1 Os2,"[Element Mo, Element Os]","{'Mo': 1.0, 'Os': 2.0}",Other,2
Mo0.2Nb0.2Re0.6,7.6,Mo0.2 Nb0.2 Re0.6,"[Element Mo, Element Nb, Element Re]","{'Mo': 0.2, 'Nb': 0.2, 'Re': 0.6}",Other,3
Mo0.55Pt0.05Re0.425,11.25,Mo0.55 Pt0.05 Re0.425,"[Element Mo, Element Pt, Element Re]","{'Mo': 0.55, 'Pt': 0.05, 'Re': 0.425}",Other,3
Mo0.5Pt0.05Re0.45,5.32,Mo0.5 Pt0.05 Re0.45,"[Element Mo, Element Pt, Element Re]","{'Mo': 0.5, 'Pt': 0.05, 'Re': 0.45}",Other,3
Mo0.72Pt0.28,5.6,Mo0.72 Pt0.28,"[Element Mo, Element Pt]","{'Mo': 0.72, 'Pt': 0.28}",Other,2
Mo0.8Pt0.2,4.56,Mo0.8 Pt0.2,"[Element Mo, Element Pt]","{'Mo': 0.8, 'Pt': 0.2}",Other,2
Mo0.815Pt0.185,4.62,Mo0.815 Pt0.185,"[Element Mo, Element Pt]","{'Mo': 0.815, 'Pt': 0.185}",Other,2
Mo0.85Pt0.15,8.8,Mo0.85 Pt0.15,"[Element Mo, Element Pt]","{'Mo': 0.85, 'Pt': 0.15}",Other,2
Mo0.93Pt0.17,2.8,Mo0.93 Pt0.17,"[Element Mo, Element Pt]","{'Mo': 0.93, 'Pt': 0.17}",Other,2
Mo6.35Pb0.7S8Sn0.36,10.0,Mo6.35 Pb0.7 S8 Sn0.36,"[Element Mo, Element Pb, Element S, Element Sn]","{'Mo': 6.35, 'Pb': 0.7, 'S': 8.0, 'Sn': 0.36}",Other,4
Mo6.35Pb0.9S8Sn0.12,11.0,Mo6.35 Pb0.9 S8 Sn0.12,"[Element Mo, Element Pb, Element S, Element Sn]","{'Mo': 6.35, 'Pb': 0.9, 'S': 8.0, 'Sn': 0.12}",Other,4
Mo6.3Pb1S6Se2,5.4,Mo6.3 Pb1 S6 Se2,"[Element Mo, Element Pb, Element S, Element Se]","{'Mo': 6.3, 'Pb': 1.0, 'S': 6.0, 'Se': 2.0}",Other,4
Mo6Pb1S7,14.0,Mo6 Pb1 S7,"[Element Mo, Element Pb, Element S]","{'Mo': 6.0, 'Pb': 1.0, 'S': 7.0}",Other,3
Mo0.42Re0.58,8.4,Mo0.42 Re0.58,"[Element Mo, Element Re]","{'Mo': 0.42, 'Re': 0.58}",Other,2
Mo3Re1,9.8,Mo3 Re1,"[Element Mo, Element Re]","{'Mo': 3.0, 'Re': 1.0}",Other,2
Mo0.5Re0.5,6.5,Mo0.5 Re0.5,"[Element Mo, Element Re]","{'Mo': 0.5, 'Re': 0.5}",Other,2
Mo0.52Re0.48,11.1,Mo0.52 Re0.48,"[Element Mo, Element Re]","{'Mo': 0.52, 'Re': 0.48}",Other,2
Mo0.57Re0.43,14.0,Mo0.57 Re0.43,"[Element Mo, Element Re]","{'Mo': 0.57, 'Re': 0.43}",Other,2
Mo0.6Re0.4,10.6,Mo0.6 Re0.4,"[Element Mo, Element Re]","{'Mo': 0.6, 'Re': 0.4}",Other,2
Mo0.66Re0.34,11.8,Mo0.66 Re0.34,"[Element Mo, Element Re]","{'Mo': 0.66, 'Re': 0.34}",Other,2
Mo0.815Re0.185,8.27,Mo0.815 Re0.185,"[Element Mo, Element Re]","{'Mo': 0.815, 'Re': 0.185}",Other,2
Mo0.865Re0.135,6.1,Mo0.865 Re0.135,"[Element Mo, Element Re]","{'Mo': 0.865, 'Re': 0.135}",Other,2
Mo0.9Re0.1,2.97,Mo0.9 Re0.1,"[Element Mo, Element Re]","{'Mo': 0.9, 'Re': 0.1}",Other,2
Mo1Rb0.3S2,6.25,Mo1 Rb0.3 S2,"[Element Mo, Element Rb, Element S]","{'Mo': 1.0, 'Rb': 0.3, 'S': 2.0}",Other,3
Mo0.39Ru0.61,6.9,Mo0.39 Ru0.61,"[Element Mo, Element Ru]","{'Mo': 0.39, 'Ru': 0.61}",Other,2
Mo1Ru1,10.5,Mo1 Ru1,"[Element Mo, Element Ru]","{'Mo': 1.0, 'Ru': 1.0}",Other,2
Mo0.6Ru0.4,7.0,Mo0.6 Ru0.4,"[Element Mo, Element Ru]","{'Mo': 0.6, 'Ru': 0.4}",Other,2
Mo0.61Ru0.39,7.18,Mo0.61 Ru0.39,"[Element Mo, Element Ru]","{'Mo': 0.61, 'Ru': 0.39}",Other,2
Mo0.05Rh0.04Ti0.91,3.3,Mo0.05 Rh0.04 Ti0.91,"[Element Mo, Element Rh, Element Ti]","{'Mo': 0.05, 'Rh': 0.04, 'Ti': 0.91}",Other,3
Mo0.75Rh0.25,6.6,Mo0.75 Rh0.25,"[Element Mo, Element Rh]","{'Mo': 0.75, 'Rh': 0.25}",Other,2
Mo1Rh1,1.97,Mo1 Rh1,"[Element Mo, Element Rh]","{'Mo': 1.0, 'Rh': 1.0}",Other,2
Mo0.7Re0.3,15.0,Mo0.7 Re0.3,"[Element Mo, Element Re]","{'Mo': 0.7, 'Re': 0.3}",Other,2
Mo0.23Re0.77,9.25,Mo0.23 Re0.77,"[Element Mo, Element Re]","{'Mo': 0.23, 'Re': 0.77}",Other,2
Mo0.28Re0.72,6.5,Mo0.28 Re0.72,"[Element Mo, Element Re]","{'Mo': 0.28, 'Re': 0.72}",Other,2
Mo1Re3,9.89,Mo1 Re3,"[Element Mo, Element Re]","{'Mo': 1.0, 'Re': 3.0}",Other,2
Mo3Se4,5.8,Mo3 Se4,"[Element Mo, Element Se]","{'Mo': 3.0, 'Se': 4.0}",Other,2
Mo3Sb4,2.1,Mo3 Sb4,"[Element Mo, Element Sb]","{'Mo': 3.0, 'Sb': 4.0}",Other,2
Mo3Sb7,2.31,Mo3 Sb7,"[Element Mo, Element Sb]","{'Mo': 3.0, 'Sb': 7.0}",Other,2
Mo3S4Sn0.6,14.2,Mo3 S4 Sn0.6,"[Element Mo, Element S, Element Sn]","{'Mo': 3.0, 'S': 4.0, 'Sn': 0.6}",Other,3
Mo5S6Sn1,13.4,Mo5 S6 Sn1,"[Element Mo, Element S, Element Sn]","{'Mo': 5.0, 'S': 6.0, 'Sn': 1.0}",Other,3
Mo6S7Sn1,13.0,Mo6 S7 Sn1,"[Element Mo, Element S, Element Sn]","{'Mo': 6.0, 'S': 7.0, 'Sn': 1.0}",Other,3
Mo3S2Se2,3.3,Mo3 S2 Se2,"[Element Mo, Element S, Element Se]","{'Mo': 3.0, 'S': 2.0, 'Se': 2.0}",Other,3
Mo3S1Se3,3.4,Mo3 S1 Se3,"[Element Mo, Element S, Element Se]","{'Mo': 3.0, 'S': 1.0, 'Se': 3.0}",Other,3
Mo0.25Ru0.75,2.6,Mo0.25 Ru0.75,"[Element Mo, Element Ru]","{'Mo': 0.25, 'Ru': 0.75}",Other,2
Mo0.91Ti0.09,2.95,Mo0.91 Ti0.09,"[Element Mo, Element Ti]","{'Mo': 0.91, 'Ti': 0.09}",Other,2
Mo1Te2,0.3,Mo1 Te2,"[Element Mo, Element Te]","{'Mo': 1.0, 'Te': 2.0}",Other,2
Mo0.05Tc0.95,10.8,Mo0.05 Tc0.95,"[Element Mo, Element Tc]","{'Mo': 0.05, 'Tc': 0.95}",Other,2
Mo0.1Tc0.9,13.4,Mo0.1 Tc0.9,"[Element Mo, Element Tc]","{'Mo': 0.1, 'Tc': 0.9}",Other,2
Mo0.25Tc0.75,15.8,Mo0.25 Tc0.75,"[Element Mo, Element Tc]","{'Mo': 0.25, 'Tc': 0.75}",Other,2
Mo0.3Tc0.7,12.0,Mo0.3 Tc0.7,"[Element Mo, Element Tc]","{'Mo': 0.3, 'Tc': 0.7}",Other,2
Mo0.4Tc0.6,14.7,Mo0.4 Tc0.6,"[Element Mo, Element Tc]","{'Mo': 0.4, 'Tc': 0.6}",Other,2
Mo0.45Tc0.55,14.0,Mo0.45 Tc0.55,"[Element Mo, Element Tc]","{'Mo': 0.45, 'Tc': 0.55}",Other,2
Mo0.5Tc0.5,14.0,Mo0.5 Tc0.5,"[Element Mo, Element Tc]","{'Mo': 0.5, 'Tc': 0.5}",Other,2
Mo0.59Si0.41,1.34,Mo0.59 Si0.41,"[Element Mo, Element Si]","{'Mo': 0.59, 'Si': 0.41}",Other,2
Mo0.77Si0.23,1.7,Mo0.77 Si0.23,"[Element Mo, Element Si]","{'Mo': 0.77, 'Si': 0.23}",Other,2
Mo3Si1,1.402,Mo3 Si1,"[Element Mo, Element Si]","{'Mo': 3.0, 'Si': 1.0}",Other,2
Mo0.15V0.85,2.28,Mo0.15 V0.85,"[Element Mo, Element V]","{'Mo': 0.15, 'V': 0.85}",Other,2
Mo0.3V0.7,0.76,Mo0.3 V0.7,"[Element Mo, Element V]","{'Mo': 0.3, 'V': 0.7}",Other,2
Mo0.5V0.5,0.11,Mo0.5 V0.5,"[Element Mo, Element V]","{'Mo': 0.5, 'V': 0.5}",Other,2
Mo0.006U0.944,1.2,Mo0.006 U0.944,"[Element Mo, Element U]","{'Mo': 0.006, 'U': 0.944}",Other,2
Mo0.12U0.88,1.85,Mo0.12 U0.88,"[Element Mo, Element U]","{'Mo': 0.12, 'U': 0.88}",Other,2
Mo0.14U0.86,2.02,Mo0.14 U0.86,"[Element Mo, Element U]","{'Mo': 0.14, 'U': 0.86}",Other,2
Mo0.22U0.78,2.06,Mo0.22 U0.78,"[Element Mo, Element U]","{'Mo': 0.22, 'U': 0.78}",Other,2
Mo0.3U0.7,1.97,Mo0.3 U0.7,"[Element Mo, Element U]","{'Mo': 0.3, 'U': 0.7}",Other,2
Mo0.1Ti0.9,3.25,Mo0.1 Ti0.9,"[Element Mo, Element Ti]","{'Mo': 0.1, 'Ti': 0.9}",Other,2
Mo0.16Ti0.84,4.246,Mo0.16 Ti0.84,"[Element Mo, Element Ti]","{'Mo': 0.16, 'Ti': 0.84}",Other,2
N1Nb1,15.2,N1 Nb1,"[Element N, Element Nb]","{'N': 1.0, 'Nb': 1.0}",Other,2
N0.003Nb0.997,9.12,N0.003 Nb0.997,"[Element N, Element Nb]","{'N': 0.003, 'Nb': 0.997}",Other,2
N1Nb2,8.6,N1 Nb2,"[Element N, Element Nb]","{'N': 1.0, 'Nb': 2.0}",Other,2
N0.48Nb1,5.5,N0.48 Nb1,"[Element N, Element Nb]","{'N': 0.48, 'Nb': 1.0}",Other,2
N0.8Nb1,8.9,N0.8 Nb1,"[Element N, Element Nb]","{'N': 0.8, 'Nb': 1.0}",Other,2
N0.84Nb1,13.5,N0.84 Nb1,"[Element N, Element Nb]","{'N': 0.84, 'Nb': 1.0}",Other,2
N0.92Nb1,16.5,N0.92 Nb1,"[Element N, Element Nb]","{'N': 0.92, 'Nb': 1.0}",Other,2
N0.99Ti1,4.35,N0.99 Ti1,"[Element N, Element Ti]","{'N': 0.99, 'Ti': 1.0}",Other,2
N1Ti1,5.49,N1 Ti1,"[Element N, Element Ti]","{'N': 1.0, 'Ti': 1.0}",Other,2
N1Th1,3.3,N1 Th1,"[Element N, Element Th]","{'N': 1.0, 'Th': 1.0}",Other,2
N1S1,0.26,N1 S1,"[Element N, Element S]","{'N': 1.0, 'S': 1.0}",Other,2
N1Nb0.9V0.1,6.6,N1 Nb0.9 V0.1,"[Element N, Element Nb, Element V]","{'N': 1.0, 'Nb': 0.9, 'V': 0.1}",Other,3
N0.85Nb0.66Ti0.34,17.61,N0.85 Nb0.66 Ti0.34,"[Element N, Element Nb, Element Ti]","{'N': 0.85, 'Nb': 0.66, 'Ti': 0.34}",Other,3
N0.88Nb0.256Ti0.744,14.72,N0.88 Nb0.256 Ti0.744,"[Element N, Element Nb, Element Ti]","{'N': 0.88, 'Nb': 0.256, 'Ti': 0.744}",Other,3
N0.9Nb0.114Ti0.886,10.1,N0.9 Nb0.114 Ti0.886,"[Element N, Element Nb, Element Ti]","{'N': 0.9, 'Nb': 0.114, 'Ti': 0.886}",Other,3
N0.998Nb1O0.002,17.3,N0.998 Nb1 O0.002,"[Element N, Element Nb, Element O]","{'N': 0.998, 'Nb': 1.0, 'O': 0.002}",Other,3
N5Nb4,8.5,N5 Nb4,"[Element N, Element Nb]","{'N': 5.0, 'Nb': 4.0}",Other,2
Nb3P1,2.0,Nb3 P1,"[Element Nb, Element P]","{'Nb': 3.0, 'P': 1.0}",Other,2
Nb0.6Os0.4,1.85,Nb0.6 Os0.4,"[Element Nb, Element Os]","{'Nb': 0.6, 'Os': 0.4}",Other,2
Nb0.5Os0.5,2.86,Nb0.5 Os0.5,"[Element Nb, Element Os]","{'Nb': 0.5, 'Os': 0.5}",Other,2
Nb1Os2,2.52,Nb1 Os2,"[Element Nb, Element Os]","{'Nb': 1.0, 'Os': 2.0}",Other,2
Nb3Os1,1.05,Nb3 Os1,"[Element Nb, Element Os]","{'Nb': 3.0, 'Os': 1.0}",Other,2
Nb1O1,1.5,Nb1 O1,"[Element Nb, Element O]","{'Nb': 1.0, 'O': 1.0}",Other,2
Na0.1Pb0.9,5.93,Na0.1 Pb0.9,"[Element Na, Element Pb]","{'Na': 0.1, 'Pb': 0.9}",Other,2
Na1Pb3,5.62,Na1 Pb3,"[Element Na, Element Pb]","{'Na': 1.0, 'Pb': 3.0}",Other,2
N0.75V1,2.3,N0.75 V1,"[Element N, Element V]","{'N': 0.75, 'V': 1.0}",Other,2
Nb0.5Re0.5,3.8,Nb0.5 Re0.5,"[Element Nb, Element Re]","{'Nb': 0.5, 'Re': 0.5}",Other,2
Nb0.9Re0.1,4.5,Nb0.9 Re0.1,"[Element Nb, Element Re]","{'Nb': 0.9, 'Re': 0.1}",Other,2
N0.62Pt0.38,4.21,N0.62 Pt0.38,"[Element N, Element Pt]","{'N': 0.62, 'Pt': 0.38}",Other,2
Nb0.9Pt0.1,2.5,Nb0.9 Pt0.1,"[Element Nb, Element Pt]","{'Nb': 0.9, 'Pt': 0.1}",Other,2
Nb3Pb0.15Sn0.85,18.16,Nb3 Pb0.15 Sn0.85,"[Element Nb, Element Pb, Element Sn]","{'Nb': 3.0, 'Pb': 0.15, 'Sn': 0.85}",Other,3
Nb0.67Pb1S3Ta0.33,2.01,Nb0.67 Pb1 S3 Ta0.33,"[Element Nb, Element Pb, Element S, Element Ta]","{'Nb': 0.67, 'Pb': 1.0, 'S': 3.0, 'Ta': 0.33}",Other,4
Nb1Pb1S3,2.66,Nb1 Pb1 S3,"[Element Nb, Element Pb, Element S]","{'Nb': 1.0, 'Pb': 1.0, 'S': 3.0}",Other,3
Nb0.45Rh0.55,3.07,Nb0.45 Rh0.55,"[Element Nb, Element Rh]","{'Nb': 0.45, 'Rh': 0.55}",Other,2
Nb0.48Rh0.52,3.76,Nb0.48 Rh0.52,"[Element Nb, Element Rh]","{'Nb': 0.48, 'Rh': 0.52}",Other,2
Nb0.6Rh0.4,4.21,Nb0.6 Rh0.4,"[Element Nb, Element Rh]","{'Nb': 0.6, 'Rh': 0.4}",Other,2
Nb3Rh1,2.79,Nb3 Rh1,"[Element Nb, Element Rh]","{'Nb': 3.0, 'Rh': 1.0}",Other,2
Nb0.85Rh0.15,3.0,Nb0.85 Rh0.15,"[Element Nb, Element Rh]","{'Nb': 0.85, 'Rh': 0.15}",Other,2
Nb0.9Rh0.1,2.8,Nb0.9 Rh0.1,"[Element Nb, Element Rh]","{'Nb': 0.9, 'Rh': 0.1}",Other,2
Nb0.11Re0.78Ta0.11,8.8,Nb0.11 Re0.78 Ta0.11,"[Element Nb, Element Re, Element Ta]","{'Nb': 0.11, 'Re': 0.78, 'Ta': 0.11}",Other,3
Nb0.05Re0.75Ta0.2,9.8,Nb0.05 Re0.75 Ta0.2,"[Element Nb, Element Re, Element Ta]","{'Nb': 0.05, 'Re': 0.75, 'Ta': 0.2}",Other,3
Nb0.29Re0.71,5.6,Nb0.29 Re0.71,"[Element Nb, Element Re]","{'Nb': 0.29, 'Re': 0.71}",Other,2
Nb0.38Re0.62,2.45,Nb0.38 Re0.62,"[Element Nb, Element Re]","{'Nb': 0.38, 'Re': 0.62}",Other,2
Nb0.4Re0.6,2.36,Nb0.4 Re0.6,"[Element Nb, Element Re]","{'Nb': 0.4, 'Re': 0.6}",Other,2
Nb1S3Sn1,2.85,Nb1 S3 Sn1,"[Element Nb, Element S, Element Sn]","{'Nb': 1.0, 'S': 3.0, 'Sn': 1.0}",Other,3
Nb1Ru3,12.0,Nb1 Ru3,"[Element Nb, Element Ru]","{'Nb': 1.0, 'Ru': 3.0}",Other,2
Nb0.4Ru0.6,2.5,Nb0.4 Ru0.6,"[Element Nb, Element Ru]","{'Nb': 0.4, 'Ru': 0.6}",Other,2
Nb0.6Ru0.4,1.2,Nb0.6 Ru0.4,"[Element Nb, Element Ru]","{'Nb': 0.6, 'Ru': 0.4}",Other,2
Nb0.8Ru0.2,4.8,Nb0.8 Ru0.2,"[Element Nb, Element Ru]","{'Nb': 0.8, 'Ru': 0.2}",Other,2
Nb0.9Ru0.1,2.8,Nb0.9 Ru0.1,"[Element Nb, Element Ru]","{'Nb': 0.9, 'Ru': 0.1}",Other,2
Nb0.925Ru0.075,4.2,Nb0.925 Ru0.075,"[Element Nb, Element Ru]","{'Nb': 0.925, 'Ru': 0.075}",Other,2
Nb0.05Rh0.04Ti0.91,2.4,Nb0.05 Rh0.04 Ti0.91,"[Element Nb, Element Rh, Element Ti]","{'Nb': 0.05, 'Rh': 0.04, 'Ti': 0.91}",Other,3
Nb0.45Re0.55,6.2,Nb0.45 Re0.55,"[Element Nb, Element Re]","{'Nb': 0.45, 'Re': 0.55}",Other,2
Nb0.375Rh0.625,2.7,Nb0.375 Rh0.625,"[Element Nb, Element Rh]","{'Nb': 0.375, 'Rh': 0.625}",Other,2
Nb3Si1,1.5,Nb3 Si1,"[Element Nb, Element Si]","{'Nb': 3.0, 'Si': 1.0}",Other,2
Nb1Se3Sn1,3.09,Nb1 Se3 Sn1,"[Element Nb, Element Se, Element Sn]","{'Nb': 1.0, 'Se': 3.0, 'Sn': 1.0}",Other,3
Nb3Se4,1.61,Nb3 Se4,"[Element Nb, Element Se]","{'Nb': 3.0, 'Se': 4.0}",Other,2
Nb0.25Sb0.25Ti0.5,2.05,Nb0.25 Sb0.25 Ti0.5,"[Element Nb, Element Sb, Element Ti]","{'Nb': 0.25, 'Sb': 0.25, 'Ti': 0.5}",Other,3
Nb0.5Sb0.25Ti0.25,3.05,Nb0.5 Sb0.25 Ti0.25,"[Element Nb, Element Sb, Element Ti]","{'Nb': 0.5, 'Sb': 0.25, 'Ti': 0.25}",Other,3
Nb3Sb0.15Sn0.7Tl0.15,16.04,Nb3 Sb0.15 Sn0.7 Tl0.15,"[Element Nb, Element Sb, Element Sn, Element Tl]","{'Nb': 3.0, 'Sb': 0.15, 'Sn': 0.7, 'Tl': 0.15}",Other,4
Nb5Sb4,8.6,Nb5 Sb4,"[Element Nb, Element Sb]","{'Nb': 5.0, 'Sb': 4.0}",Other,2
Nb0.83Sb0.17,1.95,Nb0.83 Sb0.17,"[Element Nb, Element Sb]","{'Nb': 0.83, 'Sb': 0.17}",Other,2
Nb0.84S0.16,5.6,Nb0.84 S0.16,"[Element Nb, Element S]","{'Nb': 0.84, 'S': 0.16}",Other,2
Nb0.92Sn0.08,5.6,Nb0.92 Sn0.08,"[Element Nb, Element Sn]","{'Nb': 0.92, 'Sn': 0.08}",Other,2
Nb0.03Si1V2.97,15.8,Nb0.03 Si1 V2.97,"[Element Nb, Element Si, Element V]","{'Nb': 0.03, 'Si': 1.0, 'V': 2.97}",Other,3
Nb3Si1Sn1V3,4.0,Nb3 Si1 Sn1 V3,"[Element Nb, Element Si, Element Sn, Element V]","{'Nb': 3.0, 'Si': 1.0, 'Sn': 1.0, 'V': 3.0}",Other,4
Nb3Si0.06Sn0.94,17.8,Nb3 Si0.06 Sn0.94,"[Element Nb, Element Si, Element Sn]","{'Nb': 3.0, 'Si': 0.06, 'Sn': 0.94}",Other,3
Nb3Si0.25Sn0.75,16.4,Nb3 Si0.25 Sn0.75,"[Element Nb, Element Si, Element Sn]","{'Nb': 3.0, 'Si': 0.25, 'Sn': 0.75}",Other,3
Nb3Si0.27Sn0.73,13.9,Nb3 Si0.27 Sn0.73,"[Element Nb, Element Si, Element Sn]","{'Nb': 3.0, 'Si': 0.27, 'Sn': 0.73}",Other,3
Nb3Si0.5Sn0.5,8.3,Nb3 Si0.5 Sn0.5,"[Element Nb, Element Si, Element Sn]","{'Nb': 3.0, 'Si': 0.5, 'Sn': 0.5}",Other,3
Nb3Si0.6Sn0.4,6.5,Nb3 Si0.6 Sn0.4,"[Element Nb, Element Si, Element Sn]","{'Nb': 3.0, 'Si': 0.6, 'Sn': 0.4}",Other,3
Nb0.69Sn0.25Ta0.06,17.8,Nb0.69 Sn0.25 Ta0.06,"[Element Nb, Element Sn, Element Ta]","{'Nb': 0.69, 'Sn': 0.25, 'Ta': 0.06}",Other,3
Nb1Sn2,2.68,Nb1 Sn2,"[Element Nb, Element Sn]","{'Nb': 1.0, 'Sn': 2.0}",Other,2
Nb0.5Sn0.5,17.5,Nb0.5 Sn0.5,"[Element Nb, Element Sn]","{'Nb': 0.5, 'Sn': 0.5}",Other,2
Nb6Sn5,2.07,Nb6 Sn5,"[Element Nb, Element Sn]","{'Nb': 6.0, 'Sn': 5.0}",Other,2
Nb3Sn2,17.2,Nb3 Sn2,"[Element Nb, Element Sn]","{'Nb': 3.0, 'Sn': 2.0}",Other,2
Nb0.72Sn0.28,18.2,Nb0.72 Sn0.28,"[Element Nb, Element Sn]","{'Nb': 0.72, 'Sn': 0.28}",Other,2
Nb0.76Sn0.74,18.1,Nb0.76 Sn0.74,"[Element Nb, Element Sn]","{'Nb': 0.76, 'Sn': 0.74}",Other,2
Nb0.8Sn0.2,17.3,Nb0.8 Sn0.2,"[Element Nb, Element Sn]","{'Nb': 0.8, 'Sn': 0.2}",Other,2
Nb0.991Ta0.009,8.87,Nb0.991 Ta0.009,"[Element Nb, Element Ta]","{'Nb': 0.991, 'Ta': 0.009}",Other,2
Nb0.25Sn0.25V0.5,5.5,Nb0.25 Sn0.25 V0.5,"[Element Nb, Element Sn, Element V]","{'Nb': 0.25, 'Sn': 0.25, 'V': 0.5}",Other,3
Nb0.375Sn0.25V0.375,7.4,Nb0.375 Sn0.25 V0.375,"[Element Nb, Element Sn, Element V]","{'Nb': 0.375, 'Sn': 0.25, 'V': 0.375}",Other,3
Nb0.5Sn0.25V0.25,9.8,Nb0.5 Sn0.25 V0.25,"[Element Nb, Element Sn, Element V]","{'Nb': 0.5, 'Sn': 0.25, 'V': 0.25}",Other,3
Nb0.625Sn0.25V0.125,14.2,Nb0.625 Sn0.25 V0.125,"[Element Nb, Element Sn, Element V]","{'Nb': 0.625, 'Sn': 0.25, 'V': 0.125}",Other,3
Nb3Sn0.85Tl0.15,18.2,Nb3 Sn0.85 Tl0.15,"[Element Nb, Element Sn, Element Tl]","{'Nb': 3.0, 'Sn': 0.85, 'Tl': 0.15}",Other,3
Nb0.25Sn0.25Ta0.25V0.25,6.2,Nb0.25 Sn0.25 Ta0.25 V0.25,"[Element Nb, Element Sn, Element Ta, Element V]","{'Nb': 0.25, 'Sn': 0.25, 'Ta': 0.25, 'V': 0.25}",Other,4
Nb0.5Sn0.25Ta0.125V0.125,12.2,Nb0.5 Sn0.25 Ta0.125 V0.125,"[Element Nb, Element Sn, Element Ta, Element V]","{'Nb': 0.5, 'Sn': 0.25, 'Ta': 0.125, 'V': 0.125}",Other,4
Nb0.25Sn0.25Ta0.5,10.8,Nb0.25 Sn0.25 Ta0.5,"[Element Nb, Element Sn, Element Ta]","{'Nb': 0.25, 'Sn': 0.25, 'Ta': 0.5}",Other,3
Nb0.5Sn0.25Ta0.25,16.4,Nb0.5 Sn0.25 Ta0.25,"[Element Nb, Element Sn, Element Ta]","{'Nb': 0.5, 'Sn': 0.25, 'Ta': 0.25}",Other,3
Nb0.625Sn0.25Ta0.125,17.6,Nb0.625 Sn0.25 Ta0.125,"[Element Nb, Element Sn, Element Ta]","{'Nb': 0.625, 'Sn': 0.25, 'Ta': 0.125}",Other,3
Nb0.17Ta0.83,4.65,Nb0.17 Ta0.83,"[Element Nb, Element Ta]","{'Nb': 0.17, 'Ta': 0.83}",Other,2
Nb0.2Ta0.8,4.64,Nb0.2 Ta0.8,"[Element Nb, Element Ta]","{'Nb': 0.2, 'Ta': 0.8}",Other,2
Nb0.92Ta0.71,4.94,Nb0.92 Ta0.71,"[Element Nb, Element Ta]","{'Nb': 0.92, 'Ta': 0.71}",Other,2
Nb0.37Ta0.63,5.31,Nb0.37 Ta0.63,"[Element Nb, Element Ta]","{'Nb': 0.37, 'Ta': 0.63}",Other,2
Nb0.47Ta0.53,6.2,Nb0.47 Ta0.53,"[Element Nb, Element Ta]","{'Nb': 0.47, 'Ta': 0.53}",Other,2
Nb0.5Ta0.5,6.25,Nb0.5 Ta0.5,"[Element Nb, Element Ta]","{'Nb': 0.5, 'Ta': 0.5}",Other,2
Nb0.64Ta0.36,6.8,Nb0.64 Ta0.36,"[Element Nb, Element Ta]","{'Nb': 0.64, 'Ta': 0.36}",Other,2
Nb0.803Ta0.197,7.85,Nb0.803 Ta0.197,"[Element Nb, Element Ta]","{'Nb': 0.803, 'Ta': 0.197}",Other,2
Nb0.87Ta0.13,8.15,Nb0.87 Ta0.13,"[Element Nb, Element Ta]","{'Nb': 0.87, 'Ta': 0.13}",Other,2
Nb0.938Ta0.062,8.42,Nb0.938 Ta0.062,"[Element Nb, Element Ta]","{'Nb': 0.938, 'Ta': 0.062}",Other,2
Nb0.957Ta0.043,8.55,Nb0.957 Ta0.043,"[Element Nb, Element Ta]","{'Nb': 0.957, 'Ta': 0.043}",Other,2
Nb0.984Ta0.016,8.76,Nb0.984 Ta0.016,"[Element Nb, Element Ta]","{'Nb': 0.984, 'Ta': 0.016}",Other,2
Nb0.95Ti0.05,9.41,Nb0.95 Ti0.05,"[Element Nb, Element Ti]","{'Nb': 0.95, 'Ti': 0.05}",Other,2
Nb1Te2,0.66,Nb1 Te2,"[Element Nb, Element Te]","{'Nb': 1.0, 'Te': 2.0}",Other,2
Nb3Te4,1.49,Nb3 Te4,"[Element Nb, Element Te]","{'Nb': 3.0, 'Te': 4.0}",Other,2
Nb0.03Tc0.97,12.8,Nb0.03 Tc0.97,"[Element Nb, Element Tc]","{'Nb': 0.03, 'Tc': 0.97}",Other,2
Nb0.06Tc0.94,12.8,Nb0.06 Tc0.94,"[Element Nb, Element Tc]","{'Nb': 0.06, 'Tc': 0.94}",Other,2
Nb0.24Tc0.76,12.9,Nb0.24 Tc0.76,"[Element Nb, Element Tc]","{'Nb': 0.24, 'Tc': 0.76}",Other,2
Nb0.42Tc0.58,10.9,Nb0.42 Tc0.58,"[Element Nb, Element Tc]","{'Nb': 0.42, 'Tc': 0.58}",Other,2
Nb0.93Tc0.07,7.0,Nb0.93 Tc0.07,"[Element Nb, Element Tc]","{'Nb': 0.93, 'Tc': 0.07}",Other,2
Nb0.97Tc0.03,7.6,Nb0.97 Tc0.03,"[Element Nb, Element Tc]","{'Nb': 0.97, 'Tc': 0.03}",Other,2
Nb0.31Ta0.06Ti0.62,9.0,Nb0.31 Ta0.06 Ti0.62,"[Element Nb, Element Ta, Element Ti]","{'Nb': 0.31, 'Ta': 0.06, 'Ti': 0.62}",Other,3
Nb0.025Ta0.975,4.465,Nb0.025 Ta0.975,"[Element Nb, Element Ta]","{'Nb': 0.025, 'Ta': 0.975}",Other,2
Nb0.5Ti0.3V0.2,7.8,Nb0.5 Ti0.3 V0.2,"[Element Nb, Element Ti, Element V]","{'Nb': 0.5, 'Ti': 0.3, 'V': 0.2}",Other,3
Nb0.025Ti0.975,1.5,Nb0.025 Ti0.975,"[Element Nb, Element Ti]","{'Nb': 0.025, 'Ti': 0.975}",Other,2
Nb0.22Ti0.8,7.8,Nb0.22 Ti0.8,"[Element Nb, Element Ti]","{'Nb': 0.22, 'Ti': 0.8}",Other,2
Nb0.25Ti0.75,7.4,Nb0.25 Ti0.75,"[Element Nb, Element Ti]","{'Nb': 0.25, 'Ti': 0.75}",Other,2
Nb0.33Ti0.67,9.3,Nb0.33 Ti0.67,"[Element Nb, Element Ti]","{'Nb': 0.33, 'Ti': 0.67}",Other,2
Nb0.44Ti0.56,8.99,Nb0.44 Ti0.56,"[Element Nb, Element Ti]","{'Nb': 0.44, 'Ti': 0.56}",Other,2
Nb0.5Ti0.5,10.3,Nb0.5 Ti0.5,"[Element Nb, Element Ti]","{'Nb': 0.5, 'Ti': 0.5}",Other,2
Nb0.55Ti0.45,9.4,Nb0.55 Ti0.45,"[Element Nb, Element Ti]","{'Nb': 0.55, 'Ti': 0.45}",Other,2
Nb0.6Ti0.4,9.8,Nb0.6 Ti0.4,"[Element Nb, Element Ti]","{'Nb': 0.6, 'Ti': 0.4}",Other,2
Nb0.7Ti0.3,10.1,Nb0.7 Ti0.3,"[Element Nb, Element Ti]","{'Nb': 0.7, 'Ti': 0.3}",Other,2