chemical_formula,Tc,composition,elements,stoichiometry,Category,num_elements
Sr1Fe1.8Ni0.2As2,7.4,Sr1 Fe1.8 Ni0.2 As2,"[Element Sr, Element Fe, Element Ni, Element As]","{'Sr': 1.0, 'Fe': 1.8, 'Ni': 0.2, 'As': 2.0}",Fe-based,4
Sr1Fe1.78Ni0.22As2,2.34,Sr1 Fe1.78 Ni0.22 As2,"[Element Sr, Element Fe, Element Ni, Element As]","{'Sr': 1.0, 'Fe': 1.78, 'Ni': 0.22, 'As': 2.0}",Fe-based,4
La1Fe1As0.8P0.2O1,7.0,La1 Fe1 As0.8 P0.2 O1,"[Element La, Element Fe, Element As, Element P, Element O]","{'La': 1.0, 'Fe': 1.0, 'As': 0.8, 'P': 0.2, 'O': 1.0}",Fe-based,5
La1Fe1As0.75P0.25O1,10.3,La1 Fe1 As0.75 P0.25 O1,"[Element La, Element Fe, Element As, Element P, Element O]","{'La': 1.0, 'Fe': 1.0, 'As': 0.75, 'P': 0.25, 'O': 1.0}",Fe-based,5
La1Fe1As0.7P0.3O1,10.8,La1 Fe1 As0.7 P0.3 O1,"[Element La, Element Fe, Element As, Element P, Element O]","{'La': 1.0, 'Fe': 1.0, 'As': 0.7, 'P': 0.3, 'O': 1.0}",Fe-based,5
La1Fe1As0.6P0.4O1,5.0,La1 Fe1 As0.6 P0.4 O1,"[Element La, Element Fe, Element As, Element P, Element O]","{'La': 1.0, 'Fe': 1.0, 'As': 0.6, 'P': 0.4, 'O': 1.0}",Fe-based,5
Sr1Fe1.9Ni0.1As2,5.5,Sr1 Fe1.9 Ni0.1 As2,"[Element Sr, Element Fe, Element Ni, Element As]","{'Sr': 1.0, 'Fe': 1.9, 'Ni': 0.1, 'As': 2.0}",Fe-based,4
Sr1Fe1.85Ni0.15As2,8.66,Sr1 Fe1.85 Ni0.15 As2,"[Element Sr, Element Fe, Element Ni, Element As]","{'Sr': 1.0, 'Fe': 1.85, 'Ni': 0.15, 'As': 2.0}",Fe-based,4
Sr1Fe1.82Ni0.18As2,9.6,Sr1 Fe1.82 Ni0.18 As2,"[Element Sr, Element Fe, Element Ni, Element As]","{'Sr': 1.0, 'Fe': 1.82, 'Ni': 0.18, 'As': 2.0}",Fe-based,4
Fe1.11Te0.6Se0.4,14.0,Fe1.11 Te0.6 Se0.4,"[Element Fe, Element Te, Element Se]","{'Fe': 1.11, 'Te': 0.6, 'Se': 0.4}",Fe-based,3
Ca1Fe1.92Co0.08As2,20.4,Ca1 Fe1.92 Co0.08 As2,"[Element Ca, Element Fe, Element Co, Element As]","{'Ca': 1.0, 'Fe': 1.92, 'Co': 0.08, 'As': 2.0}",Fe-based,4
Ba0.4K0.6Fe2As2,29.7,Ba0.4 K0.6 Fe2 As2,"[Element Ba, Element K, Element Fe, Element As]","{'Ba': 0.4, 'K': 0.6, 'Fe': 2.0, 'As': 2.0}",Fe-based,4
Ca1Fe1As1F1,29.0,Ca1 Fe1 As1 F1,"[Element Ca, Element Fe, Element As, Element F]","{'Ca': 1.0, 'Fe': 1.0, 'As': 1.0, 'F': 1.0}",Fe-based,4
La1Fe1As1F0.08O0.92,30.4,La1 Fe1 As1 F0.08 O0.92,"[Element La, Element Fe, Element As, Element F, Element O]","{'La': 1.0, 'Fe': 1.0, 'As': 1.0, 'F': 0.08, 'O': 0.92}",Fe-based,5
Ba1Fe1.85Co0.15As2,21.4,Ba1 Fe1.85 Co0.15 As2,"[Element Ba, Element Fe, Element Co, Element As]","{'Ba': 1.0, 'Fe': 1.85, 'Co': 0.15, 'As': 2.0}",Fe-based,4
Sr0.5Sm0.5Fe1As1F1,53.5,Sr0.5 Sm0.5 Fe1 As1 F1,"[Element Sr, Element Sm, Element Fe, Element As, Element F]","{'Sr': 0.5, 'Sm': 0.5, 'Fe': 1.0, 'As': 1.0, 'F': 1.0}",Fe-based,5
Cu0.12Bi2Se3,3.8,Cu0.12 Bi2 Se3,"[Element Cu, Element Bi, Element Se]","{'Cu': 0.12, 'Bi': 2.0, 'Se': 3.0}",Other,3
Na1Fe0.99Co0.01As1,17.9,Na1 Fe0.99 Co0.01 As1,"[Element Na, Element Fe, Element Co, Element As]","{'Na': 1.0, 'Fe': 0.99, 'Co': 0.01, 'As': 1.0}",Fe-based,4
Na1Fe0.975Co0.025As1,21.1,Na1 Fe0.975 Co0.025 As1,"[Element Na, Element Fe, Element Co, Element As]","{'Na': 1.0, 'Fe': 0.975, 'Co': 0.025, 'As': 1.0}",Fe-based,4
Na1Fe0.95Co0.05As1,16.0,Na1 Fe0.95 Co0.05 As1,"[Element Na, Element Fe, Element Co, Element As]","{'Na': 1.0, 'Fe': 0.95, 'Co': 0.05, 'As': 1.0}",Fe-based,4
Na1Fe0.93Co0.07As1,14.0,Na1 Fe0.93 Co0.07 As1,"[Element Na, Element Fe, Element Co, Element As]","{'Na': 1.0, 'Fe': 0.93, 'Co': 0.07, 'As': 1.0}",Fe-based,4
Na1Fe0.975Ni0.025As1,15.4,Na1 Fe0.975 Ni0.025 As1,"[Element Na, Element Fe, Element Ni, Element As]","{'Na': 1.0, 'Fe': 0.975, 'Ni': 0.025, 'As': 1.0}",Fe-based,4
Ga0.05Nb1Se2,5.6,Ga0.05 Nb1 Se2,"[Element Ga, Element Nb, Element Se]","{'Ga': 0.05, 'Nb': 1.0, 'Se': 2.0}",Other,3
Ga0.1Nb1Se2,2.7,Ga0.1 Nb1 Se2,"[Element Ga, Element Nb, Element Se]","{'Ga': 0.1, 'Nb': 1.0, 'Se': 2.0}",Other,3
Ni0.02Ta1S2,3.325,Ni0.02 Ta1 S2,"[Element Ni, Element Ta, Element S]","{'Ni': 0.02, 'Ta': 1.0, 'S': 2.0}",Other,3
Ni0.04Ta1S2,4.095,Ni0.04 Ta1 S2,"[Element Ni, Element Ta, Element S]","{'Ni': 0.04, 'Ta': 1.0, 'S': 2.0}",Other,3
Ni0.06Ta1S2,1.9,Ni0.06 Ta1 S2,"[Element Ni, Element Ta, Element S]","{'Ni': 0.06, 'Ta': 1.0, 'S': 2.0}",Other,3
La0.77Sm0.1Sr0.13Fe1As1O1,18.0,La0.77 Sm0.1 Sr0.13 Fe1 As1 O1,"[Element La, Element Sm, Element Sr, Element Fe, Element As, Element O]","{'La': 0.77, 'Sm': 0.1, 'Sr': 0.13, 'Fe': 1.0, 'As': 1.0, 'O': 1.0}",Fe-based,6
Pr1Fe0.95Co0.05As1O1,4.7,Pr1 Fe0.95 Co0.05 As1 O1,"[Element Pr, Element Fe, Element Co, Element As, Element O]","{'Pr': 1.0, 'Fe': 0.95, 'Co': 0.05, 'As': 1.0, 'O': 1.0}",Fe-based,5
Pr1Fe0.9Co0.1As1O1,13.8,Pr1 Fe0.9 Co0.1 As1 O1,"[Element Pr, Element Fe, Element Co, Element As, Element O]","{'Pr': 1.0, 'Fe': 0.9, 'Co': 0.1, 'As': 1.0, 'O': 1.0}",Fe-based,5
Pr1Fe0.85Co0.15As1O1,5.9,Pr1 Fe0.85 Co0.15 As1 O1,"[Element Pr, Element Fe, Element Co, Element As, Element O]","{'Pr': 1.0, 'Fe': 0.85, 'Co': 0.15, 'As': 1.0, 'O': 1.0}",Fe-based,5
Pr1Fe0.8Co0.2As1O1,4.0,Pr1 Fe0.8 Co0.2 As1 O1,"[Element Pr, Element Fe, Element Co, Element As, Element O]","{'Pr': 1.0, 'Fe': 0.8, 'Co': 0.2, 'As': 1.0, 'O': 1.0}",Fe-based,5
Pr1Fe0.7Co0.3As1O1,4.0,Pr1 Fe0.7 Co0.3 As1 O1,"[Element Pr, Element Fe, Element Co, Element As, Element O]","{'Pr': 1.0, 'Fe': 0.7, 'Co': 0.3, 'As': 1.0, 'O': 1.0}",Fe-based,5
Fe1Se0.94,8.3,Fe1 Se0.94,"[Element Fe, Element Se]","{'Fe': 1.0, 'Se': 0.94}",Fe-based,2
Ba1Fe1.904Co0.096As2,17.1,Ba1 Fe1.904 Co0.096 As2,"[Element Ba, Element Fe, Element Co, Element As]","{'Ba': 1.0, 'Fe': 1.904, 'Co': 0.096, 'As': 2.0}",Fe-based,4
Ba1Fe1.784Co0.216As2,14.6,Ba1 Fe1.784 Co0.216 As2,"[Element Ba, Element Fe, Element Co, Element As]","{'Ba': 1.0, 'Fe': 1.784, 'Co': 0.216, 'As': 2.0}",Fe-based,4
Ba1Fe2As1.34P0.66,30.0,Ba1 Fe2 As1.34 P0.66,"[Element Ba, Element Fe, Element As, Element P]","{'Ba': 1.0, 'Fe': 2.0, 'As': 1.34, 'P': 0.66}",Fe-based,4
Fe1Te0.9S0.1,10.0,Fe1 Te0.9 S0.1,"[Element Fe, Element Te, Element S]","{'Fe': 1.0, 'Te': 0.9, 'S': 0.1}",Fe-based,3
Fe1Te0.8S0.2,8.6,Fe1 Te0.8 S0.2,"[Element Fe, Element Te, Element S]","{'Fe': 1.0, 'Te': 0.8, 'S': 0.2}",Fe-based,3
Sm1Fe1As1O0.67,55.0,Sm1 Fe1 As1 O0.67,"[Element Sm, Element Fe, Element As, Element O]","{'Sm': 1.0, 'Fe': 1.0, 'As': 1.0, 'O': 0.67}",Fe-based,4
Fe1.035Te0.78Se0.22,6.0,Fe1.035 Te0.78 Se0.22,"[Element Fe, Element Te, Element Se]","{'Fe': 1.035, 'Te': 0.78, 'Se': 0.22}",Fe-based,3
Fe1.013Te0.68Se0.32,11.0,Fe1.013 Te0.68 Se0.32,"[Element Fe, Element Te, Element Se]","{'Fe': 1.013, 'Te': 0.68, 'Se': 0.32}",Fe-based,3
La1Fe0.95Rh0.05As1O1,12.0,La1 Fe0.95 Rh0.05 As1 O1,"[Element La, Element Fe, Element Rh, Element As, Element O]","{'La': 1.0, 'Fe': 0.95, 'Rh': 0.05, 'As': 1.0, 'O': 1.0}",Fe-based,5
La1Fe0.9Rh0.1As1O1,14.0,La1 Fe0.9 Rh0.1 As1 O1,"[Element La, Element Fe, Element Rh, Element As, Element O]","{'La': 1.0, 'Fe': 0.9, 'Rh': 0.1, 'As': 1.0, 'O': 1.0}",Fe-based,5
La1Fe0.85Rh0.15As1O1,14.0,La1 Fe0.85 Rh0.15 As1 O1,"[Element La, Element Fe, Element Rh, Element As, Element O]","{'La': 1.0, 'Fe': 0.85, 'Rh': 0.15, 'As': 1.0, 'O': 1.0}",Fe-based,5
Ba1Fe1.73Co0.27As2,8.1,Ba1 Fe1.73 Co0.27 As2,"[Element Ba, Element Fe, Element Co, Element As]","{'Ba': 1.0, 'Fe': 1.73, 'Co': 0.27, 'As': 2.0}",Fe-based,4
Ba1Fe1.9Pt0.1As2,25.2,Ba1 Fe1.9 Pt0.1 As2,"[Element Ba, Element Fe, Element Pt, Element As]","{'Ba': 1.0, 'Fe': 1.9, 'Pt': 0.1, 'As': 2.0}",Fe-based,4
Ba1Fe1.85Pt0.15As2,23.4,Ba1 Fe1.85 Pt0.15 As2,"[Element Ba, Element Fe, Element Pt, Element As]","{'Ba': 1.0, 'Fe': 1.85, 'Pt': 0.15, 'As': 2.0}",Fe-based,4
Ba1Fe1.75Pt0.25As2,21.1,Ba1 Fe1.75 Pt0.25 As2,"[Element Ba, Element Fe, Element Pt, Element As]","{'Ba': 1.0, 'Fe': 1.75, 'Pt': 0.25, 'As': 2.0}",Fe-based,4
Fe1.04Te0.95Se0.05,11.0,Fe1.04 Te0.95 Se0.05,"[Element Fe, Element Te, Element Se]","{'Fe': 1.04, 'Te': 0.95, 'Se': 0.05}",Fe-based,3
Fe1Te0.925Se0.075,11.5,Fe1 Te0.925 Se0.075,"[Element Fe, Element Te, Element Se]","{'Fe': 1.0, 'Te': 0.925, 'Se': 0.075}",Fe-based,3
Fe1.03Te0.9Se0.1,11.9,Fe1.03 Te0.9 Se0.1,"[Element Fe, Element Te, Element Se]","{'Fe': 1.03, 'Te': 0.9, 'Se': 0.1}",Fe-based,3
Fe1.02Te0.85Se0.15,12.7,Fe1.02 Te0.85 Se0.15,"[Element Fe, Element Te, Element Se]","{'Fe': 1.02, 'Te': 0.85, 'Se': 0.15}",Fe-based,3
Fe1.02Te0.8Se0.2,13.6,Fe1.02 Te0.8 Se0.2,"[Element Fe, Element Te, Element Se]","{'Fe': 1.02, 'Te': 0.8, 'Se': 0.2}",Fe-based,3
Pb0.99Tl0.01Te1,1.3,Pb0.99 Tl0.01 Te1,"[Element Pb, Element Tl, Element Te]","{'Pb': 0.99, 'Tl': 0.01, 'Te': 1.0}",Other,3
Pb0.985Tl0.01In0.005Te1,0.954,Pb0.985 Tl0.01 In0.005 Te1,"[Element Pb, Element Tl, Element In, Element Te]","{'Pb': 0.985, 'Tl': 0.01, 'In': 0.005, 'Te': 1.0}",Other,4
Pb0.982Tl0.01In0.008Te1,0.818,Pb0.982 Tl0.01 In0.008 Te1,"[Element Pb, Element Tl, Element In, Element Te]","{'Pb': 0.982, 'Tl': 0.01, 'In': 0.008, 'Te': 1.0}",Other,4
Ce1Ir1Ge3,1.61,Ce1 Ir1 Ge3,"[Element Ce, Element Ir, Element Ge]","{'Ce': 1.0, 'Ir': 1.0, 'Ge': 3.0}",Other,3
La1Ni1As1F0.06O0.94,3.64,La1 Ni1 As1 F0.06 O0.94,"[Element La, Element Ni, Element As, Element F, Element O]","{'La': 1.0, 'Ni': 1.0, 'As': 1.0, 'F': 0.06, 'O': 0.94}",Other,5
La1Ni1As1F0.1O0.9,4.0,La1 Ni1 As1 F0.1 O0.9,"[Element La, Element Ni, Element As, Element F, Element O]","{'La': 1.0, 'Ni': 1.0, 'As': 1.0, 'F': 0.1, 'O': 0.9}",Other,5
La1Ni1As1F0.12O0.88,3.59,La1 Ni1 As1 F0.12 O0.88,"[Element La, Element Ni, Element As, Element F, Element O]","{'La': 1.0, 'Ni': 1.0, 'As': 1.0, 'F': 0.12, 'O': 0.88}",Other,5
Fe0.99Cu0.01Se0.88,5.64,Fe0.99 Cu0.01 Se0.88,"[Element Fe, Element Cu, Element Se]","{'Fe': 0.99, 'Cu': 0.01, 'Se': 0.88}",Fe-based,3
Fe0.98Cu0.02Se0.88,4.0,Fe0.98 Cu0.02 Se0.88,"[Element Fe, Element Cu, Element Se]","{'Fe': 0.98, 'Cu': 0.02, 'Se': 0.88}",Fe-based,3
Ca5P2O10,50.0,Ca5 P2 O10,"[Element Ca, Element P, Element O]","{'Ca': 5.0, 'P': 2.0, 'O': 10.0}",Other,3
Cu0.01Fe0.99Se0.85,8.6,Cu0.01 Fe0.99 Se0.85,"[Element Cu, Element Fe, Element Se]","{'Cu': 0.01, 'Fe': 0.99, 'Se': 0.85}",Fe-based,3
Cu0.02Fe0.98Se0.85,4.1,Cu0.02 Fe0.98 Se0.85,"[Element Cu, Element Fe, Element Se]","{'Cu': 0.02, 'Fe': 0.98, 'Se': 0.85}",Fe-based,3
Mn0.1Fe0.9Se0.85,11.0,Mn0.1 Fe0.9 Se0.85,"[Element Mn, Element Fe, Element Se]","{'Mn': 0.1, 'Fe': 0.9, 'Se': 0.85}",Fe-based,3
Mn0.2Fe0.8Se0.85,11.1,Mn0.2 Fe0.8 Se0.85,"[Element Mn, Element Fe, Element Se]","{'Mn': 0.2, 'Fe': 0.8, 'Se': 0.85}",Fe-based,3
Mn0.3Fe0.7Se0.85,9.7,Mn0.3 Fe0.7 Se0.85,"[Element Mn, Element Fe, Element Se]","{'Mn': 0.3, 'Fe': 0.7, 'Se': 0.85}",Fe-based,3
Al0.1Fe0.9Se0.85,8.5,Al0.1 Fe0.9 Se0.85,"[Element Al, Element Fe, Element Se]","{'Al': 0.1, 'Fe': 0.9, 'Se': 0.85}",Fe-based,3
Al0.25Fe0.75Se0.85,8.5,Al0.25 Fe0.75 Se0.85,"[Element Al, Element Fe, Element Se]","{'Al': 0.25, 'Fe': 0.75, 'Se': 0.85}",Fe-based,3
Ga0.1Fe0.9Se0.85,6.8,Ga0.1 Fe0.9 Se0.85,"[Element Ga, Element Fe, Element Se]","{'Ga': 0.1, 'Fe': 0.9, 'Se': 0.85}",Fe-based,3
Ga0.25Fe0.75Se0.85,6.8,Ga0.25 Fe0.75 Se0.85,"[Element Ga, Element Fe, Element Se]","{'Ga': 0.25, 'Fe': 0.75, 'Se': 0.85}",Fe-based,3
Sm0.1Fe0.9Se0.85,10.6,Sm0.1 Fe0.9 Se0.85,"[Element Sm, Element Fe, Element Se]","{'Sm': 0.1, 'Fe': 0.9, 'Se': 0.85}",Fe-based,3
Sm0.25Fe0.75Se0.85,9.2,Sm0.25 Fe0.75 Se0.85,"[Element Sm, Element Fe, Element Se]","{'Sm': 0.25, 'Fe': 0.75, 'Se': 0.85}",Fe-based,3
Pr0.8Sr0.2Fe1As1O1,15.8,Pr0.8 Sr0.2 Fe1 As1 O1,"[Element Pr, Element Sr, Element Fe, Element As, Element O]","{'Pr': 0.8, 'Sr': 0.2, 'Fe': 1.0, 'As': 1.0, 'O': 1.0}",Fe-based,5
Ba0.1Fe0.9Se0.85,10.6,Ba0.1 Fe0.9 Se0.85,"[Element Ba, Element Fe, Element Se]","{'Ba': 0.1, 'Fe': 0.9, 'Se': 0.85}",Fe-based,3
Pb0.9875Tl0.0125Te1,1.35,Pb0.9875 Tl0.0125 Te1,"[Element Pb, Element Tl, Element Te]","{'Pb': 0.9875, 'Tl': 0.0125, 'Te': 1.0}",Other,3
Pb0.985Tl0.015Te1,1.4,Pb0.985 Tl0.015 Te1,"[Element Pb, Element Tl, Element Te]","{'Pb': 0.985, 'Tl': 0.015, 'Te': 1.0}",Other,3
Eu1Fe1.78Co0.22As2,21.0,Eu1 Fe1.78 Co0.22 As2,"[Element Eu, Element Fe, Element Co, Element As]","{'Eu': 1.0, 'Fe': 1.78, 'Co': 0.22, 'As': 2.0}",Fe-based,4
Pb0.99Tl0.005Na0.005Te1,1.61,Pb0.99 Tl0.005 Na0.005 Te1,"[Element Pb, Element Tl, Element Na, Element Te]","{'Pb': 0.99, 'Tl': 0.005, 'Na': 0.005, 'Te': 1.0}",Other,4
Pb0.985Tl0.005Na0.01Te1,1.38,Pb0.985 Tl0.005 Na0.01 Te1,"[Element Pb, Element Tl, Element Na, Element Te]","{'Pb': 0.985, 'Tl': 0.005, 'Na': 0.01, 'Te': 1.0}",Other,4
Pb0.987Tl0.0125Na0.005Te1,1.87,Pb0.987 Tl0.0125 Na0.005 Te1,"[Element Pb, Element Tl, Element Na, Element Te]","{'Pb': 0.987, 'Tl': 0.0125, 'Na': 0.005, 'Te': 1.0}",Other,4
Pb0.975Tl0.0125Na0.0125Te1,1.71,Pb0.975 Tl0.0125 Na0.0125 Te1,"[Element Pb, Element Tl, Element Na, Element Te]","{'Pb': 0.975, 'Tl': 0.0125, 'Na': 0.0125, 'Te': 1.0}",Other,4
Ce1Pt2In7,2.1,Ce1 Pt2 In7,"[Element Ce, Element Pt, Element In]","{'Ce': 1.0, 'Pt': 2.0, 'In': 7.0}",Other,3
Ba0.5K0.5Fe1.96Mn0.04As2,28.4,Ba0.5 K0.5 Fe1.96 Mn0.04 As2,"[Element Ba, Element K, Element Fe, Element Mn, Element As]","{'Ba': 0.5, 'K': 0.5, 'Fe': 1.96, 'Mn': 0.04, 'As': 2.0}",Fe-based,5
Ba0.5K0.5Fe1.92Mn0.08As2,15.0,Ba0.5 K0.5 Fe1.92 Mn0.08 As2,"[Element Ba, Element K, Element Fe, Element Mn, Element As]","{'Ba': 0.5, 'K': 0.5, 'Fe': 1.92, 'Mn': 0.08, 'As': 2.0}",Fe-based,5
Ba0.77K0.23Fe2As2,24.0,Ba0.77 K0.23 Fe2 As2,"[Element Ba, Element K, Element Fe, Element As]","{'Ba': 0.77, 'K': 0.23, 'Fe': 2.0, 'As': 2.0}",Fe-based,4
Sr1Ni2As2,0.66,Sr1 Ni2 As2,"[Element Sr, Element Ni, Element As]","{'Sr': 1.0, 'Ni': 2.0, 'As': 2.0}",Other,3
La0.9Ca0.1Fe1P1O1,5.67,La0.9 Ca0.1 Fe1 P1 O1,"[Element La, Element Ca, Element Fe, Element P, Element O]","{'La': 0.9, 'Ca': 0.1, 'Fe': 1.0, 'P': 1.0, 'O': 1.0}",Fe-based,5
Sm1Fe1P1O1,2.5,Sm1 Fe1 P1 O1,"[Element Sm, Element Fe, Element P, Element O]","{'Sm': 1.0, 'Fe': 1.0, 'P': 1.0, 'O': 1.0}",Fe-based,4
Ni2Nb1Al1,2.15,Ni2 Nb1 Al1,"[Element Ni, Element Nb, Element Al]","{'Ni': 2.0, 'Nb': 1.0, 'Al': 1.0}",Other,3
Ni2Nb1Ga1,1.54,Ni2 Nb1 Ga1,"[Element Ni, Element Nb, Element Ga]","{'Ni': 2.0, 'Nb': 1.0, 'Ga': 1.0}",Other,3
Mo7Re13B1,8.3,Mo7 Re13 B1,"[Element Mo, Element Re, Element B]","{'Mo': 7.0, 'Re': 13.0, 'B': 1.0}",Other,3
Mo7Re13C1,8.1,Mo7 Re13 C1,"[Element Mo, Element Re, Element C]","{'Mo': 7.0, 'Re': 13.0, 'C': 1.0}",Other,3
Lu0.85Er0.15Ru1B2,8.86,Lu0.85 Er0.15 Ru1 B2,"[Element Lu, Element Er, Element Ru, Element B]","{'Lu': 0.85, 'Er': 0.15, 'Ru': 1.0, 'B': 2.0}",Other,4
Lu0.65Er0.35Ru1B2,6.94,Lu0.65 Er0.35 Ru1 B2,"[Element Lu, Element Er, Element Ru, Element B]","{'Lu': 0.65, 'Er': 0.35, 'Ru': 1.0, 'B': 2.0}",Other,4
Lu0.6Er0.4Ru1B2,6.295,Lu0.6 Er0.4 Ru1 B2,"[Element Lu, Element Er, Element Ru, Element B]","{'Lu': 0.6, 'Er': 0.4, 'Ru': 1.0, 'B': 2.0}",Other,4
Lu0.55Er0.45Ru1B2,5.26,Lu0.55 Er0.45 Ru1 B2,"[Element Lu, Element Er, Element Ru, Element B]","{'Lu': 0.55, 'Er': 0.45, 'Ru': 1.0, 'B': 2.0}",Other,4
Lu0.8Tm0.2Ru1B2,7.28,Lu0.8 Tm0.2 Ru1 B2,"[Element Lu, Element Tm, Element Ru, Element B]","{'Lu': 0.8, 'Tm': 0.2, 'Ru': 1.0, 'B': 2.0}",Other,4
Lu0.6Tm0.4Ru1B2,4.31,Lu0.6 Tm0.4 Ru1 B2,"[Element Lu, Element Tm, Element Ru, Element B]","{'Lu': 0.6, 'Tm': 0.4, 'Ru': 1.0, 'B': 2.0}",Other,4
Lu0.55Tm0.45Ru1B2,2.94,Lu0.55 Tm0.45 Ru1 B2,"[Element Lu, Element Tm, Element Ru, Element B]","{'Lu': 0.55, 'Tm': 0.45, 'Ru': 1.0, 'B': 2.0}",Other,4
Lu0.9Tb0.1Ru1B2,4.76,Lu0.9 Tb0.1 Ru1 B2,"[Element Lu, Element Tb, Element Ru, Element B]","{'Lu': 0.9, 'Tb': 0.1, 'Ru': 1.0, 'B': 2.0}",Other,4
Lu0.9Ho0.1Ru1B2,7.53,Lu0.9 Ho0.1 Ru1 B2,"[Element Lu, Element Ho, Element Ru, Element B]","{'Lu': 0.9, 'Ho': 0.1, 'Ru': 1.0, 'B': 2.0}",Other,4
Lu0.9Er0.1Ru1B2,8.77,Lu0.9 Er0.1 Ru1 B2,"[Element Lu, Element Er, Element Ru, Element B]","{'Lu': 0.9, 'Er': 0.1, 'Ru': 1.0, 'B': 2.0}",Other,4
Lu0.9Tm0.1Ru1B2,8.72,Lu0.9 Tm0.1 Ru1 B2,"[Element Lu, Element Tm, Element Ru, Element B]","{'Lu': 0.9, 'Tm': 0.1, 'Ru': 1.0, 'B': 2.0}",Other,4
Lu0.8Ho0.2Ru1B2,6.46,Lu0.8 Ho0.2 Ru1 B2,"[Element Lu, Element Ho, Element Ru, Element B]","{'Lu': 0.8, 'Ho': 0.2, 'Ru': 1.0, 'B': 2.0}",Other,4
Lu0.8Er0.2Ru1B2,7.85,Lu0.8 Er0.2 Ru1 B2,"[Element Lu, Element Er, Element Ru, Element B]","{'Lu': 0.8, 'Er': 0.2, 'Ru': 1.0, 'B': 2.0}",Other,4
Er0.97Tm0.15Rh4B4,8.86,Er0.97 Tm0.15 Rh4 B4,"[Element Er, Element Tm, Element Rh, Element B]","{'Er': 0.97, 'Tm': 0.15, 'Rh': 4.0, 'B': 4.0}",Other,4
Er0.97Tm0.3Rh4B4,9.03,Er0.97 Tm0.3 Rh4 B4,"[Element Er, Element Tm, Element Rh, Element B]","{'Er': 0.97, 'Tm': 0.3, 'Rh': 4.0, 'B': 4.0}",Other,4
Er0.73Ho0.27Rh4B4,8.06,Er0.73 Ho0.27 Rh4 B4,"[Element Er, Element Ho, Element Rh, Element B]","{'Er': 0.73, 'Ho': 0.27, 'Rh': 4.0, 'B': 4.0}",Other,4
Er0.187Ho0.813Rh4B4,6.43,Er0.187 Ho0.813 Rh4 B4,"[Element Er, Element Ho, Element Rh, Element B]","{'Er': 0.187, 'Ho': 0.813, 'Rh': 4.0, 'B': 4.0}",Other,4
Er1Rh3.6Ir0.4B4,7.95,Er1 Rh3.6 Ir0.4 B4,"[Element Er, Element Rh, Element Ir, Element B]","{'Er': 1.0, 'Rh': 3.6, 'Ir': 0.4, 'B': 4.0}",Other,4
Er1Rh2.4Ir1.6B4,7.56,Er1 Rh2.4 Ir1.6 B4,"[Element Er, Element Rh, Element Ir, Element B]","{'Er': 1.0, 'Rh': 2.4, 'Ir': 1.6, 'B': 4.0}",Other,4
Er1Rh1.6Ir2.4B4,2.11,Er1 Rh1.6 Ir2.4 B4,"[Element Er, Element Rh, Element Ir, Element B]","{'Er': 1.0, 'Rh': 1.6, 'Ir': 2.4, 'B': 4.0}",Other,4
Ho1Rh3.6Ir0.4B4,5.09,Ho1 Rh3.6 Ir0.4 B4,"[Element Ho, Element Rh, Element Ir, Element B]","{'Ho': 1.0, 'Rh': 3.6, 'Ir': 0.4, 'B': 4.0}",Other,4
Ho1Rh1.6Ir2.4B4,2.2,Ho1 Rh1.6 Ir2.4 B4,"[Element Ho, Element Rh, Element Ir, Element B]","{'Ho': 1.0, 'Rh': 1.6, 'Ir': 2.4, 'B': 4.0}",Other,4
Ho1Rh0.8Ir3.2B4,1.26,Ho1 Rh0.8 Ir3.2 B4,"[Element Ho, Element Rh, Element Ir, Element B]","{'Ho': 1.0, 'Rh': 0.8, 'Ir': 3.2, 'B': 4.0}",Other,4
Er0.79Ho0.21Rh4B4,8.22,Er0.79 Ho0.21 Rh4 B4,"[Element Er, Element Ho, Element Rh, Element B]","{'Er': 0.79, 'Ho': 0.21, 'Rh': 4.0, 'B': 4.0}",Other,4
Er0.46Ho0.54Rh4B4,7.32,Er0.46 Ho0.54 Rh4 B4,"[Element Er, Element Ho, Element Rh, Element B]","{'Er': 0.46, 'Ho': 0.54, 'Rh': 4.0, 'B': 4.0}",Other,4
Er0.134Ho0.866Rh4B4,6.15,Er0.134 Ho0.866 Rh4 B4,"[Element Er, Element Ho, Element Rh, Element B]","{'Er': 0.134, 'Ho': 0.866, 'Rh': 4.0, 'B': 4.0}",Other,4
Ba1Fe1.25Ru0.75As2,21.0,Ba1 Fe1.25 Ru0.75 As2,"[Element Ba, Element Fe, Element Ru, Element As]","{'Ba': 1.0, 'Fe': 1.25, 'Ru': 0.75, 'As': 2.0}",Fe-based,4
Ba1Fe1.125Ru0.875As2,22.5,Ba1 Fe1.125 Ru0.875 As2,"[Element Ba, Element Fe, Element Ru, Element As]","{'Ba': 1.0, 'Fe': 1.125, 'Ru': 0.875, 'As': 2.0}",Fe-based,4
Ba1Fe0.875Ru1.125As2,21.3,Ba1 Fe0.875 Ru1.125 As2,"[Element Ba, Element Fe, Element Ru, Element As]","{'Ba': 1.0, 'Fe': 0.875, 'Ru': 1.125, 'As': 2.0}",Fe-based,4
Ba1Fe2As1.18P0.82,25.3,Ba1 Fe2 As1.18 P0.82,"[Element Ba, Element Fe, Element As, Element P]","{'Ba': 1.0, 'Fe': 2.0, 'As': 1.18, 'P': 0.82}",Fe-based,4
Ba1Fe2As0.72P1.28,8.545,Ba1 Fe2 As0.72 P1.28,"[Element Ba, Element Fe, Element As, Element P]","{'Ba': 1.0, 'Fe': 2.0, 'As': 0.72, 'P': 1.28}",Fe-based,4
Ba1Fe1.925Ni0.075As2,12.2,Ba1 Fe1.925 Ni0.075 As2,"[Element Ba, Element Fe, Element Ni, Element As]","{'Ba': 1.0, 'Fe': 1.925, 'Ni': 0.075, 'As': 2.0}",Fe-based,4
Ba1Fe1.85Ni0.15As2,13.8,Ba1 Fe1.85 Ni0.15 As2,"[Element Ba, Element Fe, Element Ni, Element As]","{'Ba': 1.0, 'Fe': 1.85, 'Ni': 0.15, 'As': 2.0}",Fe-based,4
Ho1.1Ir4B3.6,2.12,Ho1.1 Ir4 B3.6,"[Element Ho, Element Ir, Element B]","{'Ho': 1.1, 'Ir': 4.0, 'B': 3.6}",Other,3
Sm1Fe0.95Ru0.05As1F0.15O0.85,42.7,Sm1 Fe0.95 Ru0.05 As1 F0.15 O0.85,"[Element Sm, Element Fe, Element Ru, Element As, Element F, Element O]","{'Sm': 1.0, 'Fe': 0.95, 'Ru': 0.05, 'As': 1.0, 'F': 0.15, 'O': 0.85}",Fe-based,6
Sm1Fe0.9Ru0.1As1F0.15O0.85,21.7,Sm1 Fe0.9 Ru0.1 As1 F0.15 O0.85,"[Element Sm, Element Fe, Element Ru, Element As, Element F, Element O]","{'Sm': 1.0, 'Fe': 0.9, 'Ru': 0.1, 'As': 1.0, 'F': 0.15, 'O': 0.85}",Fe-based,6
Sm1Fe0.8Ru0.2As1F0.15O0.85,18.5,Sm1 Fe0.8 Ru0.2 As1 F0.15 O0.85,"[Element Sm, Element Fe, Element Ru, Element As, Element F, Element O]","{'Sm': 1.0, 'Fe': 0.8, 'Ru': 0.2, 'As': 1.0, 'F': 0.15, 'O': 0.85}",Fe-based,6
Sm1Fe0.7Ru0.3As1F0.15O0.85,13.9,Sm1 Fe0.7 Ru0.3 As1 F0.15 O0.85,"[Element Sm, Element Fe, Element Ru, Element As, Element F, Element O]","{'Sm': 1.0, 'Fe': 0.7, 'Ru': 0.3, 'As': 1.0, 'F': 0.15, 'O': 0.85}",Fe-based,6