chemical_formula,Tc,composition,elements,stoichiometry,Category,num_elements
Ho0.01La0.99,5.18,Ho0.01 La0.99,"[Element Ho, Element La]","{'Ho': 0.01, 'La': 0.99}",Other,2
Hg0.004In0.996,3.396,Hg0.004 In0.996,"[Element Hg, Element In]","{'Hg': 0.004, 'In': 0.996}",Other,2
Hg0.016In0.984,3.342,Hg0.016 In0.984,"[Element Hg, Element In]","{'Hg': 0.016, 'In': 0.984}",Other,2
Hg0.048In0.952,3.427,Hg0.048 In0.952,"[Element Hg, Element In]","{'Hg': 0.048, 'In': 0.952}",Other,2
V3Ga0.8Si0.2,11.9,V3 Ga0.8 Si0.2,"[Element V, Element Ga, Element Si]","{'V': 3.0, 'Ga': 0.8, 'Si': 0.2}",Other,3
V3Ga0.2Si0.8,10.5,V3 Ga0.2 Si0.8,"[Element V, Element Ga, Element Si]","{'V': 3.0, 'Ga': 0.2, 'Si': 0.8}",Other,3
V3Ga0.6Si0.4,9.5,V3 Ga0.6 Si0.4,"[Element V, Element Ga, Element Si]","{'V': 3.0, 'Ga': 0.6, 'Si': 0.4}",Other,3
V3Ga0.4Si0.6,8.7,V3 Ga0.4 Si0.6,"[Element V, Element Ga, Element Si]","{'V': 3.0, 'Ga': 0.4, 'Si': 0.6}",Other,3
V3Ga0.9Sn0.1,10.7,V3 Ga0.9 Sn0.1,"[Element V, Element Ga, Element Sn]","{'V': 3.0, 'Ga': 0.9, 'Sn': 0.1}",Other,3
V3Ga0.7Sn0.3,7.2,V3 Ga0.7 Sn0.3,"[Element V, Element Ga, Element Sn]","{'V': 3.0, 'Ga': 0.7, 'Sn': 0.3}",Other,3
V3Ga0.5Sn0.5,5.6,V3 Ga0.5 Sn0.5,"[Element V, Element Ga, Element Sn]","{'V': 3.0, 'Ga': 0.5, 'Sn': 0.5}",Other,3
V3Ga0.1Sn0.9,3.8,V3 Ga0.1 Sn0.9,"[Element V, Element Ga, Element Sn]","{'V': 3.0, 'Ga': 0.1, 'Sn': 0.9}",Other,3
In0.005Pb0.995,7.181,In0.005 Pb0.995,"[Element In, Element Pb]","{'In': 0.005, 'Pb': 0.995}",Other,2
In0.01Pb0.99,7.173,In0.01 Pb0.99,"[Element In, Element Pb]","{'In': 0.01, 'Pb': 0.99}",Other,2
In0.02Pb0.98,7.15,In0.02 Pb0.98,"[Element In, Element Pb]","{'In': 0.02, 'Pb': 0.98}",Other,2
In0.04Pb0.96,7.075,In0.04 Pb0.96,"[Element In, Element Pb]","{'In': 0.04, 'Pb': 0.96}",Other,2
In0.06Pb0.94,7.061,In0.06 Pb0.94,"[Element In, Element Pb]","{'In': 0.06, 'Pb': 0.94}",Other,2
In0.08Pb0.92,7.025,In0.08 Pb0.92,"[Element In, Element Pb]","{'In': 0.08, 'Pb': 0.92}",Other,2
Ga0.01Sn0.99,3.726,Ga0.01 Sn0.99,"[Element Ga, Element Sn]","{'Ga': 0.01, 'Sn': 0.99}",Other,2
Ga0.02Sn0.98,3.726,Ga0.02 Sn0.98,"[Element Ga, Element Sn]","{'Ga': 0.02, 'Sn': 0.98}",Other,2
Ga0.04Sn0.96,3.887,Ga0.04 Sn0.96,"[Element Ga, Element Sn]","{'Ga': 0.04, 'Sn': 0.96}",Other,2
Ga0.05Sn0.95,3.938,Ga0.05 Sn0.95,"[Element Ga, Element Sn]","{'Ga': 0.05, 'Sn': 0.95}",Other,2
Hg0.9In0.1,3.73,Hg0.9 In0.1,"[Element Hg, Element In]","{'Hg': 0.9, 'In': 0.1}",Other,2
In0.92Sn0.08,4.25,In0.92 Sn0.08,"[Element In, Element Sn]","{'In': 0.92, 'Sn': 0.08}",Other,2
In0.9Pb0.1,4.36,In0.9 Pb0.1,"[Element In, Element Pb]","{'In': 0.9, 'Pb': 0.1}",Other,2
Hf0.61Ta0.39,5.71,Hf0.61 Ta0.39,"[Element Hf, Element Ta]","{'Hf': 0.61, 'Ta': 0.39}",Other,2
Hf0.52Ta0.48,6.61,Hf0.52 Ta0.48,"[Element Hf, Element Ta]","{'Hf': 0.52, 'Ta': 0.48}",Other,2
Hf0.4Ta0.6,6.85,Hf0.4 Ta0.6,"[Element Hf, Element Ta]","{'Hf': 0.4, 'Ta': 0.6}",Other,2
Hf0.1Ta0.9,5.6,Hf0.1 Ta0.9,"[Element Hf, Element Ta]","{'Hf': 0.1, 'Ta': 0.9}",Other,2
Ta0.91W0.09,2.78,Ta0.91 W0.09,"[Element Ta, Element W]","{'Ta': 0.91, 'W': 0.09}",Other,2
Ta0.84W0.16,1.86,Ta0.84 W0.16,"[Element Ta, Element W]","{'Ta': 0.84, 'W': 0.16}",Other,2
Ta0.78W0.22,1.36,Ta0.78 W0.22,"[Element Ta, Element W]","{'Ta': 0.78, 'W': 0.22}",Other,2
In0.966Mg0.034,3.61,In0.966 Mg0.034,"[Element In, Element Mg]","{'In': 0.966, 'Mg': 0.034}",Other,2
In0.82Mg0.18,3.67,In0.82 Mg0.18,"[Element In, Element Mg]","{'In': 0.82, 'Mg': 0.18}",Other,2
Nb3Ga0.05Sn0.95,18.3,Nb3 Ga0.05 Sn0.95,"[Element Nb, Element Ga, Element Sn]","{'Nb': 3.0, 'Ga': 0.05, 'Sn': 0.95}",Other,3
Nb3Tl0.1Sn0.9,18.25,Nb3 Tl0.1 Sn0.9,"[Element Nb, Element Tl, Element Sn]","{'Nb': 3.0, 'Tl': 0.1, 'Sn': 0.9}",Other,3
Nb3As0.05Sn0.95,18.19,Nb3 As0.05 Sn0.95,"[Element Nb, Element As, Element Sn]","{'Nb': 3.0, 'As': 0.05, 'Sn': 0.95}",Other,3
Nb3Sb0.1Sn0.9,17.04,Nb3 Sb0.1 Sn0.9,"[Element Nb, Element Sb, Element Sn]","{'Nb': 3.0, 'Sb': 0.1, 'Sn': 0.9}",Other,3
Nb3Al0.05Sn0.95,18.2,Nb3 Al0.05 Sn0.95,"[Element Nb, Element Al, Element Sn]","{'Nb': 3.0, 'Al': 0.05, 'Sn': 0.95}",Other,3
Nb3In0.2Sb0.2Sn0.6,16.0,Nb3 In0.2 Sb0.2 Sn0.6,"[Element Nb, Element In, Element Sb, Element Sn]","{'Nb': 3.0, 'In': 0.2, 'Sb': 0.2, 'Sn': 0.6}",Other,4
Nb3Ge0.2Pb0.2Sn0.6,17.84,Nb3 Ge0.2 Pb0.2 Sn0.6,"[Element Nb, Element Ge, Element Pb, Element Sn]","{'Nb': 3.0, 'Ge': 0.2, 'Pb': 0.2, 'Sn': 0.6}",Other,4
Nb3Ga0.2Bi0.2Sn0.6,18.06,Nb3 Ga0.2 Bi0.2 Sn0.6,"[Element Nb, Element Ga, Element Bi, Element Sn]","{'Nb': 3.0, 'Ga': 0.2, 'Bi': 0.2, 'Sn': 0.6}",Other,4
Nb3Al0.72Ge0.28,19.9,Nb3 Al0.72 Ge0.28,"[Element Nb, Element Al, Element Ge]","{'Nb': 3.0, 'Al': 0.72, 'Ge': 0.28}",Other,3
Nb3Sn0.91Ga0.09,18.3,Nb3 Sn0.91 Ga0.09,"[Element Nb, Element Sn, Element Ga]","{'Nb': 3.0, 'Sn': 0.91, 'Ga': 0.09}",Other,3
Nb3Sn0.49Ga0.51,16.4,Nb3 Sn0.49 Ga0.51,"[Element Nb, Element Sn, Element Ga]","{'Nb': 3.0, 'Sn': 0.49, 'Ga': 0.51}",Other,3
Nb3Sn0.91Al0.09,17.8,Nb3 Sn0.91 Al0.09,"[Element Nb, Element Sn, Element Al]","{'Nb': 3.0, 'Sn': 0.91, 'Al': 0.09}",Other,3
Nb3Ga0.65Al0.35,18.1,Nb3 Ga0.65 Al0.35,"[Element Nb, Element Ga, Element Al]","{'Nb': 3.0, 'Ga': 0.65, 'Al': 0.35}",Other,3
Nb3Ga0.9Sn0.1,16.1,Nb3 Ga0.9 Sn0.1,"[Element Nb, Element Ga, Element Sn]","{'Nb': 3.0, 'Ga': 0.9, 'Sn': 0.1}",Other,3
Nb3Ga0.65Sn0.35,16.3,Nb3 Ga0.65 Sn0.35,"[Element Nb, Element Ga, Element Sn]","{'Nb': 3.0, 'Ga': 0.65, 'Sn': 0.35}",Other,3
Hf0.909W0.091,2.38,Hf0.909 W0.091,"[Element Hf, Element W]","{'Hf': 0.909, 'W': 0.091}",Other,2
Hf0.834W0.166,2.79,Hf0.834 W0.166,"[Element Hf, Element W]","{'Hf': 0.834, 'W': 0.166}",Other,2
Hf0.78W0.22,2.77,Hf0.78 W0.22,"[Element Hf, Element W]","{'Hf': 0.78, 'W': 0.22}",Other,2
Hf0.661W0.339,2.51,Hf0.661 W0.339,"[Element Hf, Element W]","{'Hf': 0.661, 'W': 0.339}",Other,2
Hf0.915Mo0.085,2.13,Hf0.915 Mo0.085,"[Element Hf, Element Mo]","{'Hf': 0.915, 'Mo': 0.085}",Other,2
Hf0.654Mo0.346,2.92,Hf0.654 Mo0.346,"[Element Hf, Element Mo]","{'Hf': 0.654, 'Mo': 0.346}",Other,2
Hf0.34Mo0.66,1.0,Hf0.34 Mo0.66,"[Element Hf, Element Mo]","{'Hf': 0.34, 'Mo': 0.66}",Other,2
Hf0.96Rh0.04,2.34,Hf0.96 Rh0.04,"[Element Hf, Element Rh]","{'Hf': 0.96, 'Rh': 0.04}",Other,2
Hf0.9Rh0.1,1.9,Hf0.9 Rh0.1,"[Element Hf, Element Rh]","{'Hf': 0.9, 'Rh': 0.1}",Other,2
Hf0.8Rh0.2,1.95,Hf0.8 Rh0.2,"[Element Hf, Element Rh]","{'Hf': 0.8, 'Rh': 0.2}",Other,2
V75Si20Ge5,12.15,V75 Si20 Ge5,"[Element V, Element Si, Element Ge]","{'V': 75.0, 'Si': 20.0, 'Ge': 5.0}",Other,3
V75Si12.5Ge12.5,8.58,V75 Si12.5 Ge12.5,"[Element V, Element Si, Element Ge]","{'V': 75.0, 'Si': 12.5, 'Ge': 12.5}",Other,3
V75Si5Ge20,6.76,V75 Si5 Ge20,"[Element V, Element Si, Element Ge]","{'V': 75.0, 'Si': 5.0, 'Ge': 20.0}",Other,3
V75Ge20Sn5,5.46,V75 Ge20 Sn5,"[Element V, Element Ge, Element Sn]","{'V': 75.0, 'Ge': 20.0, 'Sn': 5.0}",Other,3
V75Ge20Sb5,5.86,V75 Ge20 Sb5,"[Element V, Element Ge, Element Sb]","{'V': 75.0, 'Ge': 20.0, 'Sb': 5.0}",Other,3
V75Ge12.5Sb12.49,4.71,V75 Ge12.5 Sb12.49,"[Element V, Element Ge, Element Sb]","{'V': 75.0, 'Ge': 12.5, 'Sb': 12.49}",Other,3
V75Si20Ga5,12.33,V75 Si20 Ga5,"[Element V, Element Si, Element Ga]","{'V': 75.0, 'Si': 20.0, 'Ga': 5.0}",Other,3
V75Si12.5Ga12.5,8.15,V75 Si12.5 Ga12.5,"[Element V, Element Si, Element Ga]","{'V': 75.0, 'Si': 12.5, 'Ga': 12.5}",Other,3
V75Si5Ga20,10.58,V75 Si5 Ga20,"[Element V, Element Si, Element Ga]","{'V': 75.0, 'Si': 5.0, 'Ga': 20.0}",Other,3
V75Si2.57Ga22.4,13.32,V75 Si2.57 Ga22.4,"[Element V, Element Si, Element Ga]","{'V': 75.0, 'Si': 2.57, 'Ga': 22.4}",Other,3
Cr0.027Ti0.973,3.5,Cr0.027 Ti0.973,"[Element Cr, Element Ti]","{'Cr': 0.027, 'Ti': 0.973}",Other,2
Cr0.152Ti0.848,4.18,Cr0.152 Ti0.848,"[Element Cr, Element Ti]","{'Cr': 0.152, 'Ti': 0.848}",Other,2
Mn0.025Ti0.975,2.33,Mn0.025 Ti0.975,"[Element Mn, Element Ti]","{'Mn': 0.025, 'Ti': 0.975}",Other,2
Mn0.101Ti0.899,3.0,Mn0.101 Ti0.899,"[Element Mn, Element Ti]","{'Mn': 0.101, 'Ti': 0.899}",Other,2
Fe0.025Ti0.975,3.08,Fe0.025 Ti0.975,"[Element Fe, Element Ti]","{'Fe': 0.025, 'Ti': 0.975}",Fe-based,2
Fe0.101Ti0.899,3.67,Fe0.101 Ti0.899,"[Element Fe, Element Ti]","{'Fe': 0.101, 'Ti': 0.899}",Fe-based,2
Co0.032Ti0.968,2.84,Co0.032 Ti0.968,"[Element Co, Element Ti]","{'Co': 0.032, 'Ti': 0.968}",Other,2
Co0.15Ti0.85,3.8,Co0.15 Ti0.85,"[Element Co, Element Ti]","{'Co': 0.15, 'Ti': 0.85}",Other,2
Ti0.588V0.392Fe0.02,6.79,Ti0.588 V0.392 Fe0.02,"[Element Ti, Element V, Element Fe]","{'Ti': 0.588, 'V': 0.392, 'Fe': 0.02}",Fe-based,3
Ti0.576V0.384Fe0.04,6.08,Ti0.576 V0.384 Fe0.04,"[Element Ti, Element V, Element Fe]","{'Ti': 0.576, 'V': 0.384, 'Fe': 0.04}",Fe-based,3
Ti0.564V0.376Fe0.06,5.32,Ti0.564 V0.376 Fe0.06,"[Element Ti, Element V, Element Fe]","{'Ti': 0.564, 'V': 0.376, 'Fe': 0.06}",Fe-based,3
Ti0.588V0.392Ru0.02,6.58,Ti0.588 V0.392 Ru0.02,"[Element Ti, Element V, Element Ru]","{'Ti': 0.588, 'V': 0.392, 'Ru': 0.02}",Other,3
Ti0.576V0.384Ru0.04,5.57,Ti0.576 V0.384 Ru0.04,"[Element Ti, Element V, Element Ru]","{'Ti': 0.576, 'V': 0.384, 'Ru': 0.04}",Other,3
Ti0.564V0.376Ru0.06,4.72,Ti0.564 V0.376 Ru0.06,"[Element Ti, Element V, Element Ru]","{'Ti': 0.564, 'V': 0.376, 'Ru': 0.06}",Other,3
Er0.03La0.97,4.49,Er0.03 La0.97,"[Element Er, Element La]","{'Er': 0.03, 'La': 0.97}",Other,2
Nb0.96Ti0.04N0.9,13.8,Nb0.96 Ti0.04 N0.9,"[Element Nb, Element Ti, Element N]","{'Nb': 0.96, 'Ti': 0.04, 'N': 0.9}",Other,3
Nb0.92Ti0.08N0.93,15.2,Nb0.92 Ti0.08 N0.93,"[Element Nb, Element Ti, Element N]","{'Nb': 0.92, 'Ti': 0.08, 'N': 0.93}",Other,3
Nb0.75Ti0.25N0.94,16.1,Nb0.75 Ti0.25 N0.94,"[Element Nb, Element Ti, Element N]","{'Nb': 0.75, 'Ti': 0.25, 'N': 0.94}",Other,3
Nb0.5Ti0.5N0.95,15.1,Nb0.5 Ti0.5 N0.95,"[Element Nb, Element Ti, Element N]","{'Nb': 0.5, 'Ti': 0.5, 'N': 0.95}",Other,3
Nb0.35Ti0.65N0.97,13.2,Nb0.35 Ti0.65 N0.97,"[Element Nb, Element Ti, Element N]","{'Nb': 0.35, 'Ti': 0.65, 'N': 0.97}",Other,3
Nb0.25Ti0.75N0.98,10.5,Nb0.25 Ti0.75 N0.98,"[Element Nb, Element Ti, Element N]","{'Nb': 0.25, 'Ti': 0.75, 'N': 0.98}",Other,3
Nb0.1Ti0.9N0.98,6.48,Nb0.1 Ti0.9 N0.98,"[Element Nb, Element Ti, Element N]","{'Nb': 0.1, 'Ti': 0.9, 'N': 0.98}",Other,3
Nb0.92Hf0.08N0.93,13.7,Nb0.92 Hf0.08 N0.93,"[Element Nb, Element Hf, Element N]","{'Nb': 0.92, 'Hf': 0.08, 'N': 0.93}",Other,3
Nb0.85Hf0.15N0.94,12.3,Nb0.85 Hf0.15 N0.94,"[Element Nb, Element Hf, Element N]","{'Nb': 0.85, 'Hf': 0.15, 'N': 0.94}",Other,3
Nb0.67Hf0.33N1,10.2,Nb0.67 Hf0.33 N1,"[Element Nb, Element Hf, Element N]","{'Nb': 0.67, 'Hf': 0.33, 'N': 1.0}",Other,3
Nb0.5Hf0.5N0.98,7.33,Nb0.5 Hf0.5 N0.98,"[Element Nb, Element Hf, Element N]","{'Nb': 0.5, 'Hf': 0.5, 'N': 0.98}",Other,3
Nb0.35Hf0.65N1,6.05,Nb0.35 Hf0.65 N1,"[Element Nb, Element Hf, Element N]","{'Nb': 0.35, 'Hf': 0.65, 'N': 1.0}",Other,3
Nb0.1Hf0.9N1,5.47,Nb0.1 Hf0.9 N1,"[Element Nb, Element Hf, Element N]","{'Nb': 0.1, 'Hf': 0.9, 'N': 1.0}",Other,3
Nb0.95V0.05N0.85,7.12,Nb0.95 V0.05 N0.85,"[Element Nb, Element V, Element N]","{'Nb': 0.95, 'V': 0.05, 'N': 0.85}",Other,3
Nb0.85V0.15N0.92,3.88,Nb0.85 V0.15 N0.92,"[Element Nb, Element V, Element N]","{'Nb': 0.85, 'V': 0.15, 'N': 0.92}",Other,3
Nb0.67V0.33N0.94,1.86,Nb0.67 V0.33 N0.94,"[Element Nb, Element V, Element N]","{'Nb': 0.67, 'V': 0.33, 'N': 0.94}",Other,3
Nb0.5V0.5N0.94,1.86,Nb0.5 V0.5 N0.94,"[Element Nb, Element V, Element N]","{'Nb': 0.5, 'V': 0.5, 'N': 0.94}",Other,3
Nb0.25V0.75N0.94,2.92,Nb0.25 V0.75 N0.94,"[Element Nb, Element V, Element N]","{'Nb': 0.25, 'V': 0.75, 'N': 0.94}",Other,3
N0.99V1,7.91,N0.99 V1,"[Element N, Element V]","{'N': 0.99, 'V': 1.0}",Other,2
Hg0.06Sn0.94,5.05,Hg0.06 Sn0.94,"[Element Hg, Element Sn]","{'Hg': 0.06, 'Sn': 0.94}",Other,2
In0.85Pb0.15,5.1,In0.85 Pb0.15,"[Element In, Element Pb]","{'In': 0.85, 'Pb': 0.15}",Other,2
In0.75Pb0.25,5.65,In0.75 Pb0.25,"[Element In, Element Pb]","{'In': 0.75, 'Pb': 0.25}",Other,2
In0.5Pb0.5,6.43,In0.5 Pb0.5,"[Element In, Element Pb]","{'In': 0.5, 'Pb': 0.5}",Other,2
In0.2Pb0.8,6.95,In0.2 Pb0.8,"[Element In, Element Pb]","{'In': 0.2, 'Pb': 0.8}",Other,2
Hf0.99Ta0.01V2,9.11,Hf0.99 Ta0.01 V2,"[Element Hf, Element Ta, Element V]","{'Hf': 0.99, 'Ta': 0.01, 'V': 2.0}",Other,3
Hf0.95Ta0.05V2,9.49,Hf0.95 Ta0.05 V2,"[Element Hf, Element Ta, Element V]","{'Hf': 0.95, 'Ta': 0.05, 'V': 2.0}",Other,3
Hf0.8Ta0.2V2,9.54,Hf0.8 Ta0.2 V2,"[Element Hf, Element Ta, Element V]","{'Hf': 0.8, 'Ta': 0.2, 'V': 2.0}",Other,3
Ta2S2C2,3.61,Ta2 S2 C2,"[Element Ta, Element S, Element C]","{'Ta': 2.0, 'S': 2.0, 'C': 2.0}",Other,3
Ge2Lu1,2.6,Ge2 Lu1,"[Element Ge, Element Lu]","{'Ge': 2.0, 'Lu': 1.0}",Other,2
B2.8C97.2,4.0,B2.8 C97.2,"[Element B, Element C]","{'B': 2.8, 'C': 97.2}",Other,2
Ga1Nb4Se8,2.9,Ga1 Nb4 Se8,"[Element Ga, Element Nb, Element Se]","{'Ga': 1.0, 'Nb': 4.0, 'Se': 8.0}",Other,3
Ga1Ta4Se8,5.8,Ga1 Ta4 Se8,"[Element Ga, Element Ta, Element Se]","{'Ga': 1.0, 'Ta': 4.0, 'Se': 8.0}",Other,3
La98Lu2,4.643,La98 Lu2,"[Element La, Element Lu]","{'La': 98.0, 'Lu': 2.0}",Other,2
La98Lu1.7Tb0.3,3.959,La98 Lu1.7 Tb0.3,"[Element La, Element Lu, Element Tb]","{'La': 98.0, 'Lu': 1.7, 'Tb': 0.3}",Other,3
La98Lu1.4Tb0.6,3.127,La98 Lu1.4 Tb0.6,"[Element La, Element Lu, Element Tb]","{'La': 98.0, 'Lu': 1.4, 'Tb': 0.6}",Other,3
La98Lu0.934Tb1.066,1.608,La98 Lu0.934 Tb1.066,"[Element La, Element Lu, Element Tb]","{'La': 98.0, 'Lu': 0.934, 'Tb': 1.066}",Other,3
La98Lu0.877Tb1.123,1.602,La98 Lu0.877 Tb1.123,"[Element La, Element Lu, Element Tb]","{'La': 98.0, 'Lu': 0.877, 'Tb': 1.123}",Other,3
La98Lu0.815Tb1.185,1.248,La98 Lu0.815 Tb1.185,"[Element La, Element Lu, Element Tb]","{'La': 98.0, 'Lu': 0.815, 'Tb': 1.185}",Other,3
La98Lu0.754Tb1.246,0.907,La98 Lu0.754 Tb1.246,"[Element La, Element Lu, Element Tb]","{'La': 98.0, 'Lu': 0.754, 'Tb': 1.246}",Other,3
La98Lu0.697Tb1.303,0.632,La98 Lu0.697 Tb1.303,"[Element La, Element Lu, Element Tb]","{'La': 98.0, 'Lu': 0.697, 'Tb': 1.303}",Other,3
La98Lu1.15Tb0.85,2.582,La98 Lu1.15 Tb0.85,"[Element La, Element Lu, Element Tb]","{'La': 98.0, 'Lu': 1.15, 'Tb': 0.85}",Other,3
La98Lu1Tb1,2.108,La98 Lu1 Tb1,"[Element La, Element Lu, Element Tb]","{'La': 98.0, 'Lu': 1.0, 'Tb': 1.0}",Other,3
In0.017Sn0.983,3.625,In0.017 Sn0.983,"[Element In, Element Sn]","{'In': 0.017, 'Sn': 0.983}",Other,2
In0.046Sn0.954,3.655,In0.046 Sn0.954,"[Element In, Element Sn]","{'In': 0.046, 'Sn': 0.954}",Other,2
In0.075Sn0.925,3.766,In0.075 Sn0.925,"[Element In, Element Sn]","{'In': 0.075, 'Sn': 0.925}",Other,2
Mo0.75Pt0.15Re0.1,5.3,Mo0.75 Pt0.15 Re0.1,"[Element Mo, Element Pt, Element Re]","{'Mo': 0.75, 'Pt': 0.15, 'Re': 0.1}",Other,3
Mo0.7Pt0.075Re0.225,7.4,Mo0.7 Pt0.075 Re0.225,"[Element Mo, Element Pt, Element Re]","{'Mo': 0.7, 'Pt': 0.075, 'Re': 0.225}",Other,3
Mo0.65Pt0.1Re0.25,7.4,Mo0.65 Pt0.1 Re0.25,"[Element Mo, Element Pt, Element Re]","{'Mo': 0.65, 'Pt': 0.1, 'Re': 0.25}",Other,3
Mo0.65Pt0.05Re0.3,8.9,Mo0.65 Pt0.05 Re0.3,"[Element Mo, Element Pt, Element Re]","{'Mo': 0.65, 'Pt': 0.05, 'Re': 0.3}",Other,3
Mo0.6Pt0.1Re0.3,8.5,Mo0.6 Pt0.1 Re0.3,"[Element Mo, Element Pt, Element Re]","{'Mo': 0.6, 'Pt': 0.1, 'Re': 0.3}",Other,3
Mo0.6Pt0.05Re0.35,9.8,Mo0.6 Pt0.05 Re0.35,"[Element Mo, Element Pt, Element Re]","{'Mo': 0.6, 'Pt': 0.05, 'Re': 0.35}",Other,3
Mo0.35Pt0.075Re0.375,10.6,Mo0.35 Pt0.075 Re0.375,"[Element Mo, Element Pt, Element Re]","{'Mo': 0.35, 'Pt': 0.075, 'Re': 0.375}",Other,3
Mo0.55Pt0.05Re0.4,10.2,Mo0.55 Pt0.05 Re0.4,"[Element Mo, Element Pt, Element Re]","{'Mo': 0.55, 'Pt': 0.05, 'Re': 0.4}",Other,3
Ir0.7Os0.3,0.0167,Ir0.7 Os0.3,"[Element Ir, Element Os]","{'Ir': 0.7, 'Os': 0.3}",Other,2
Os0.32Rh0.68,0.0376,Os0.32 Rh0.68,"[Element Os, Element Rh]","{'Os': 0.32, 'Rh': 0.68}",Other,2
Sn93In3.5Sb3.5,3.743,Sn93 In3.5 Sb3.5,"[Element Sn, Element In, Element Sb]","{'Sn': 93.0, 'In': 3.5, 'Sb': 3.5}",Other,3
In3Sn97,3.628,In3 Sn97,"[Element In, Element Sn]","{'In': 3.0, 'Sn': 97.0}",Other,2
In6Sn94,3.644,In6 Sn94,"[Element In, Element Sn]","{'In': 6.0, 'Sn': 94.0}",Other,2
Th90.9Tm9.1,1.07,Th90.9 Tm9.1,"[Element Th, Element Tm]","{'Th': 90.9, 'Tm': 9.1}",Other,2
Th81.3Tm18.7,0.97,Th81.3 Tm18.7,"[Element Th, Element Tm]","{'Th': 81.3, 'Tm': 18.7}",Other,2
Th70.2Tm29.8,0.67,Th70.2 Tm29.8,"[Element Th, Element Tm]","{'Th': 70.2, 'Tm': 29.8}",Other,2
Pr0.102Th0.898,0.95,Pr0.102 Th0.898,"[Element Pr, Element Th]","{'Pr': 0.102, 'Th': 0.898}",Other,2
Pr0.179Th0.821,0.75,Pr0.179 Th0.821,"[Element Pr, Element Th]","{'Pr': 0.179, 'Th': 0.821}",Other,2
Pr0.251Th0.749,0.53,Pr0.251 Th0.749,"[Element Pr, Element Th]","{'Pr': 0.251, 'Th': 0.749}",Other,2
Pr0.342Th0.658,0.32,Pr0.342 Th0.658,"[Element Pr, Element Th]","{'Pr': 0.342, 'Th': 0.658}",Other,2
La0.967Pr0.033Tl3,1.16,La0.967 Pr0.033 Tl3,"[Element La, Element Pr, Element Tl]","{'La': 0.967, 'Pr': 0.033, 'Tl': 3.0}",Other,3
La0.93Pr0.07Tl3,0.8,La0.93 Pr0.07 Tl3,"[Element La, Element Pr, Element Tl]","{'La': 0.93, 'Pr': 0.07, 'Tl': 3.0}",Other,3
La0.901Pr0.099Tl3,0.55,La0.901 Pr0.099 Tl3,"[Element La, Element Pr, Element Tl]","{'La': 0.901, 'Pr': 0.099, 'Tl': 3.0}",Other,3
La0.962Tm0.038Sn3,5.49,La0.962 Tm0.038 Sn3,"[Element La, Element Tm, Element Sn]","{'La': 0.962, 'Tm': 0.038, 'Sn': 3.0}",Other,3
La0.908Tm0.092Sn3,4.18,La0.908 Tm0.092 Sn3,"[Element La, Element Tm, Element Sn]","{'La': 0.908, 'Tm': 0.092, 'Sn': 3.0}",Other,3
La0.95Pr0.05Pb3,3.3,La0.95 Pr0.05 Pb3,"[Element La, Element Pr, Element Pb]","{'La': 0.95, 'Pr': 0.05, 'Pb': 3.0}",Other,3
La0.9Pr0.1Pb3,2.58,La0.9 Pr0.1 Pb3,"[Element La, Element Pr, Element Pb]","{'La': 0.9, 'Pr': 0.1, 'Pb': 3.0}",Other,3
La0.85Pr0.15Pb3,1.88,La0.85 Pr0.15 Pb3,"[Element La, Element Pr, Element Pb]","{'La': 0.85, 'Pr': 0.15, 'Pb': 3.0}",Other,3
La0.8Pr0.2Pb3,1.34,La0.8 Pr0.2 Pb3,"[Element La, Element Pr, Element Pb]","{'La': 0.8, 'Pr': 0.2, 'Pb': 3.0}",Other,3
La0.75Pr0.25Pb3,0.8,La0.75 Pr0.25 Pb3,"[Element La, Element Pr, Element Pb]","{'La': 0.75, 'Pr': 0.25, 'Pb': 3.0}",Other,3
La0.7Pr0.3Pb3,0.37,La0.7 Pr0.3 Pb3,"[Element La, Element Pr, Element Pb]","{'La': 0.7, 'Pr': 0.3, 'Pb': 3.0}",Other,3
In0.17Tl0.83,3.45,In0.17 Tl0.83,"[Element In, Element Tl]","{'In': 0.17, 'Tl': 0.83}",Other,2
In0.25Tl0.75,3.64,In0.25 Tl0.75,"[Element In, Element Tl]","{'In': 0.25, 'Tl': 0.75}",Other,2
In0.4Tl0.6,2.52,In0.4 Tl0.6,"[Element In, Element Tl]","{'In': 0.4, 'Tl': 0.6}",Other,2
In0.45Tl0.55,2.48,In0.45 Tl0.55,"[Element In, Element Tl]","{'In': 0.45, 'Tl': 0.55}",Other,2
La0.91Lu0.09,3.28,La0.91 Lu0.09,"[Element La, Element Lu]","{'La': 0.91, 'Lu': 0.09}",Other,2
La0.951Lu0.049,4.37,La0.951 Lu0.049,"[Element La, Element Lu]","{'La': 0.951, 'Lu': 0.049}",Other,2
Ir0.96Re0.04,0.142,Ir0.96 Re0.04,"[Element Ir, Element Re]","{'Ir': 0.96, 'Re': 0.04}",Other,2
Ir0.93Re0.07,0.22,Ir0.93 Re0.07,"[Element Ir, Element Re]","{'Ir': 0.93, 'Re': 0.07}",Other,2
Ir0.9Re0.1,0.34,Ir0.9 Re0.1,"[Element Ir, Element Re]","{'Ir': 0.9, 'Re': 0.1}",Other,2
Ir0.8Re0.2,0.66,Ir0.8 Re0.2,"[Element Ir, Element Re]","{'Ir': 0.8, 'Re': 0.2}",Other,2
Ir0.7Re0.3,1.7,Ir0.7 Re0.3,"[Element Ir, Element Re]","{'Ir': 0.7, 'Re': 0.3}",Other,2
Ir0.95Re0.02,0.112,Ir0.95 Re0.02,"[Element Ir, Element Re]","{'Ir': 0.95, 'Re': 0.02}",Other,2
Ir0.55Re0.15,0.61,Ir0.55 Re0.15,"[Element Ir, Element Re]","{'Ir': 0.55, 'Re': 0.15}",Other,2
Ir0.6Os0.4,0.73,Ir0.6 Os0.4,"[Element Ir, Element Os]","{'Ir': 0.6, 'Os': 0.4}",Other,2
Ir0.987Mo0.013,0.107,Ir0.987 Mo0.013,"[Element Ir, Element Mo]","{'Ir': 0.987, 'Mo': 0.013}",Other,2
Ir0.973Mo0.027,0.133,Ir0.973 Mo0.027,"[Element Ir, Element Mo]","{'Ir': 0.973, 'Mo': 0.027}",Other,2
Ir0.953Mo0.047,0.168,Ir0.953 Mo0.047,"[Element Ir, Element Mo]","{'Ir': 0.953, 'Mo': 0.047}",Other,2
Ir0.9Mo0.1,0.29,Ir0.9 Mo0.1,"[Element Ir, Element Mo]","{'Ir': 0.9, 'Mo': 0.1}",Other,2
Ir0.82Mo0.18,0.5,Ir0.82 Mo0.18,"[Element Ir, Element Mo]","{'Ir': 0.82, 'Mo': 0.18}",Other,2
Ir0.987W0.013,0.107,Ir0.987 W0.013,"[Element Ir, Element W]","{'Ir': 0.987, 'W': 0.013}",Other,2
Ir0.973W0.027,0.125,Ir0.973 W0.027,"[Element Ir, Element W]","{'Ir': 0.973, 'W': 0.027}",Other,2
Ir0.953W0.047,0.162,Ir0.953 W0.047,"[Element Ir, Element W]","{'Ir': 0.953, 'W': 0.047}",Other,2
Ir0.9W0.1,0.23,Ir0.9 W0.1,"[Element Ir, Element W]","{'Ir': 0.9, 'W': 0.1}",Other,2