chemical_formula,Tc,composition,elements,stoichiometry,Category,num_elements
Nb2.934V0.066Sn1,17.7,Nb2.934 V0.066 Sn1,"[Element Nb, Element V, Element Sn]","{'Nb': 2.934, 'V': 0.066, 'Sn': 1.0}",Other,3
Nb2.85V0.15Sn1,17.1,Nb2.85 V0.15 Sn1,"[Element Nb, Element V, Element Sn]","{'Nb': 2.85, 'V': 0.15, 'Sn': 1.0}",Other,3
Nb2.7V0.3Sn1,15.9,Nb2.7 V0.3 Sn1,"[Element Nb, Element V, Element Sn]","{'Nb': 2.7, 'V': 0.3, 'Sn': 1.0}",Other,3
Nb2.55V0.45Sn1,15.0,Nb2.55 V0.45 Sn1,"[Element Nb, Element V, Element Sn]","{'Nb': 2.55, 'V': 0.45, 'Sn': 1.0}",Other,3
Nb2.85Ta0.15Sn1,18.3,Nb2.85 Ta0.15 Sn1,"[Element Nb, Element Ta, Element Sn]","{'Nb': 2.85, 'Ta': 0.15, 'Sn': 1.0}",Other,3
Nb2.7Ta0.3Sn1,18.0,Nb2.7 Ta0.3 Sn1,"[Element Nb, Element Ta, Element Sn]","{'Nb': 2.7, 'Ta': 0.3, 'Sn': 1.0}",Other,3
Nb2.4Ta0.6Sn1,17.3,Nb2.4 Ta0.6 Sn1,"[Element Nb, Element Ta, Element Sn]","{'Nb': 2.4, 'Ta': 0.6, 'Sn': 1.0}",Other,3
Nb2.1Ta0.9Sn1,16.0,Nb2.1 Ta0.9 Sn1,"[Element Nb, Element Ta, Element Sn]","{'Nb': 2.1, 'Ta': 0.9, 'Sn': 1.0}",Other,3
Nb1.8Ta1.2Sn1,14.1,Nb1.8 Ta1.2 Sn1,"[Element Nb, Element Ta, Element Sn]","{'Nb': 1.8, 'Ta': 1.2, 'Sn': 1.0}",Other,3
Nb0.1Ta0.9,4.55,Nb0.1 Ta0.9,"[Element Nb, Element Ta]","{'Nb': 0.1, 'Ta': 0.9}",Other,2
Nb0.05Ta0.95,4.45,Nb0.05 Ta0.95,"[Element Nb, Element Ta]","{'Nb': 0.05, 'Ta': 0.95}",Other,2
Nb1Se2.2,6.35,Nb1 Se2.2,"[Element Nb, Element Se]","{'Nb': 1.0, 'Se': 2.2}",Other,2
Nb1.01Se2,7.05,Nb1.01 Se2,"[Element Nb, Element Se]","{'Nb': 1.01, 'Se': 2.0}",Other,2
Nb1.02Se2,6.75,Nb1.02 Se2,"[Element Nb, Element Se]","{'Nb': 1.02, 'Se': 2.0}",Other,2
Nb1.05Se2,4.86,Nb1.05 Se2,"[Element Nb, Element Se]","{'Nb': 1.05, 'Se': 2.0}",Other,2
O0.95Ti1,0.8,O0.95 Ti1,"[Element O, Element Ti]","{'O': 0.95, 'Ti': 1.0}",Other,2
O1.06Ti1,0.54,O1.06 Ti1,"[Element O, Element Ti]","{'O': 1.06, 'Ti': 1.0}",Other,2
Nb0.98Ta0.02,9.02,Nb0.98 Ta0.02,"[Element Nb, Element Ta]","{'Nb': 0.98, 'Ta': 0.02}",Other,2
Nb0.96Ta0.04,8.87,Nb0.96 Ta0.04,"[Element Nb, Element Ta]","{'Nb': 0.96, 'Ta': 0.04}",Other,2
Nb0.94Ta0.06,8.76,Nb0.94 Ta0.06,"[Element Nb, Element Ta]","{'Nb': 0.94, 'Ta': 0.06}",Other,2
Nb0.9Ta0.1,8.4,Nb0.9 Ta0.1,"[Element Nb, Element Ta]","{'Nb': 0.9, 'Ta': 0.1}",Other,2
Nb0.85Ta0.15,8.08,Nb0.85 Ta0.15,"[Element Nb, Element Ta]","{'Nb': 0.85, 'Ta': 0.15}",Other,2
Nb0.6Ta0.4,6.56,Nb0.6 Ta0.4,"[Element Nb, Element Ta]","{'Nb': 0.6, 'Ta': 0.4}",Other,2
Be13W1,4.1,Be13 W1,"[Element Be, Element W]","{'Be': 13.0, 'W': 1.0}",Other,2
Al1Ge2,1.75,Al1 Ge2,"[Element Al, Element Ge]","{'Al': 1.0, 'Ge': 2.0}",Other,2
Nb4.4Re1,4.8,Nb4.4 Re1,"[Element Nb, Element Re]","{'Nb': 4.4, 'Re': 1.0}",Other,2
Mg2Nb1,5.6,Mg2 Nb1,"[Element Mg, Element Nb]","{'Mg': 2.0, 'Nb': 1.0}",Other,2
O0.92Ti1,0.72,O0.92 Ti1,"[Element O, Element Ti]","{'O': 0.92, 'Ti': 1.0}",Other,2
O0.86Ti1,0.47,O0.86 Ti1,"[Element O, Element Ti]","{'O': 0.86, 'Ti': 1.0}",Other,2
O0.91Ti1,0.7,O0.91 Ti1,"[Element O, Element Ti]","{'O': 0.91, 'Ti': 1.0}",Other,2
Pb0.95Sb0.05,7.83,Pb0.95 Sb0.05,"[Element Pb, Element Sb]","{'Pb': 0.95, 'Sb': 0.05}",Other,2
Bi0.05Pb0.95,7.388,Bi0.05 Pb0.95,"[Element Bi, Element Pb]","{'Bi': 0.05, 'Pb': 0.95}",Other,2
Pb0.95Sn0.05,7.268,Pb0.95 Sn0.05,"[Element Pb, Element Sn]","{'Pb': 0.95, 'Sn': 0.05}",Other,2
In0.05Pb0.95,7.091,In0.05 Pb0.95,"[Element In, Element Pb]","{'In': 0.05, 'Pb': 0.95}",Other,2
Pb0.95Tl0.05,7.055,Pb0.95 Tl0.05,"[Element Pb, Element Tl]","{'Pb': 0.95, 'Tl': 0.05}",Other,2
Pb0.4Tl0.6,4.67,Pb0.4 Tl0.6,"[Element Pb, Element Tl]","{'Pb': 0.4, 'Tl': 0.6}",Other,2
Os0.001Re0.999,1.71,Os0.001 Re0.999,"[Element Os, Element Re]","{'Os': 0.001, 'Re': 0.999}",Other,2
Os0.002Re0.998,1.71,Os0.002 Re0.998,"[Element Os, Element Re]","{'Os': 0.002, 'Re': 0.998}",Other,2
Os0.006Re0.994,1.76,Os0.006 Re0.994,"[Element Os, Element Re]","{'Os': 0.006, 'Re': 0.994}",Other,2
Os0.0275Re0.9725,1.84,Os0.0275 Re0.9725,"[Element Os, Element Re]","{'Os': 0.0275, 'Re': 0.9725}",Other,2
Os0.046Re0.954,1.92,Os0.046 Re0.954,"[Element Os, Element Re]","{'Os': 0.046, 'Re': 0.954}",Other,2
Os0.065Re0.935,1.92,Os0.065 Re0.935,"[Element Os, Element Re]","{'Os': 0.065, 'Re': 0.935}",Other,2
Os0.084Re0.916,1.88,Os0.084 Re0.916,"[Element Os, Element Re]","{'Os': 0.084, 'Re': 0.916}",Other,2
Os0.113Re0.887,1.79,Os0.113 Re0.887,"[Element Os, Element Re]","{'Os': 0.113, 'Re': 0.887}",Other,2
Re0.025Ta0.975,3.458,Re0.025 Ta0.975,"[Element Re, Element Ta]","{'Re': 0.025, 'Ta': 0.975}",Other,2
Re0.05Ta0.95,2.77,Re0.05 Ta0.95,"[Element Re, Element Ta]","{'Re': 0.05, 'Ta': 0.95}",Other,2
Re0.075Ta0.925,2.08,Re0.075 Ta0.925,"[Element Re, Element Ta]","{'Re': 0.075, 'Ta': 0.925}",Other,2
Re0.1Ta0.9,1.49,Re0.1 Ta0.9,"[Element Re, Element Ta]","{'Re': 0.1, 'Ta': 0.9}",Other,2
Re0.15Ta0.85,0.75,Re0.15 Ta0.85,"[Element Re, Element Ta]","{'Re': 0.15, 'Ta': 0.85}",Other,2
Re0.2Ta0.8,0.21,Re0.2 Ta0.8,"[Element Re, Element Ta]","{'Re': 0.2, 'Ta': 0.8}",Other,2
Ir0.15Os0.85,0.54,Ir0.15 Os0.85,"[Element Ir, Element Os]","{'Ir': 0.15, 'Os': 0.85}",Other,2
Pt0.035W0.965,1.98,Pt0.035 W0.965,"[Element Pt, Element W]","{'Pt': 0.035, 'W': 0.965}",Other,2
Rh0.005Ti0.995,0.79,Rh0.005 Ti0.995,"[Element Rh, Element Ti]","{'Rh': 0.005, 'Ti': 0.995}",Other,2
Rh0.01Ti0.99,1.16,Rh0.01 Ti0.99,"[Element Rh, Element Ti]","{'Rh': 0.01, 'Ti': 0.99}",Other,2
Rh0.015Ti0.985,1.6,Rh0.015 Ti0.985,"[Element Rh, Element Ti]","{'Rh': 0.015, 'Ti': 0.985}",Other,2
Rh0.02Ti0.98,1.73,Rh0.02 Ti0.98,"[Element Rh, Element Ti]","{'Rh': 0.02, 'Ti': 0.98}",Other,2
Rh0.025Ti0.975,1.79,Rh0.025 Ti0.975,"[Element Rh, Element Ti]","{'Rh': 0.025, 'Ti': 0.975}",Other,2
Rh0.03Ti0.97,1.34,Rh0.03 Ti0.97,"[Element Rh, Element Ti]","{'Rh': 0.03, 'Ti': 0.97}",Other,2
Ti1.38V1.62Sb1,1.49,Ti1.38 V1.62 Sb1,"[Element Ti, Element V, Element Sb]","{'Ti': 1.38, 'V': 1.62, 'Sb': 1.0}",Other,3
Ti2.01Nb0.99Sb1,1.96,Ti2.01 Nb0.99 Sb1,"[Element Ti, Element Nb, Element Sb]","{'Ti': 2.01, 'Nb': 0.99, 'Sb': 1.0}",Other,3
Ti0.99Nb2.01Sb1,2.84,Ti0.99 Nb2.01 Sb1,"[Element Ti, Element Nb, Element Sb]","{'Ti': 0.99, 'Nb': 2.01, 'Sb': 1.0}",Other,3
Ru0.42V0.58,2.12,Ru0.42 V0.58,"[Element Ru, Element V]","{'Ru': 0.42, 'V': 0.58}",Other,2
Ru0.43V0.57,2.92,Ru0.43 V0.57,"[Element Ru, Element V]","{'Ru': 0.43, 'V': 0.57}",Other,2
Ru0.445V0.555,3.48,Ru0.445 V0.555,"[Element Ru, Element V]","{'Ru': 0.445, 'V': 0.555}",Other,2
Ru0.47V0.53,4.53,Ru0.47 V0.53,"[Element Ru, Element V]","{'Ru': 0.47, 'V': 0.53}",Other,2
Ru0.475V0.525,3.12,Ru0.475 V0.525,"[Element Ru, Element V]","{'Ru': 0.475, 'V': 0.525}",Other,2
Pt0.73W0.27,0.213,Pt0.73 W0.27,"[Element Pt, Element W]","{'Pt': 0.73, 'W': 0.27}",Other,2
Pt0.52W0.48,1.35,Pt0.52 W0.48,"[Element Pt, Element W]","{'Pt': 0.52, 'W': 0.48}",Other,2
Pt0.33W0.67,3.02,Pt0.33 W0.67,"[Element Pt, Element W]","{'Pt': 0.33, 'W': 0.67}",Other,2
Pt0.43W0.57,2.09,Pt0.43 W0.57,"[Element Pt, Element W]","{'Pt': 0.43, 'W': 0.57}",Other,2
Ta0.685Ti0.315,8.28,Ta0.685 Ti0.315,"[Element Ta, Element Ti]","{'Ta': 0.685, 'Ti': 0.315}",Other,2
Ta0.462Ti0.538,9.05,Ta0.462 Ti0.538,"[Element Ta, Element Ti]","{'Ta': 0.462, 'Ti': 0.538}",Other,2
La0.05Th0.95,1.3,La0.05 Th0.95,"[Element La, Element Th]","{'La': 0.05, 'Th': 0.95}",Other,2
La0.1Th0.9,1.48,La0.1 Th0.9,"[Element La, Element Th]","{'La': 0.1, 'Th': 0.9}",Other,2
La0.2Th0.8,1.87,La0.2 Th0.8,"[Element La, Element Th]","{'La': 0.2, 'Th': 0.8}",Other,2
La0.7Th0.3,4.88,La0.7 Th0.3,"[Element La, Element Th]","{'La': 0.7, 'Th': 0.3}",Other,2
La0.8Th0.2,5.15,La0.8 Th0.2,"[Element La, Element Th]","{'La': 0.8, 'Th': 0.2}",Other,2
La0.9Th0.1,5.62,La0.9 Th0.1,"[Element La, Element Th]","{'La': 0.9, 'Th': 0.1}",Other,2
Tc0.2W0.8,3.85,Tc0.2 W0.8,"[Element Tc, Element W]","{'Tc': 0.2, 'W': 0.8}",Other,2
Tc0.3W0.7,5.75,Tc0.3 W0.7,"[Element Tc, Element W]","{'Tc': 0.3, 'W': 0.7}",Other,2
Tc0.4W0.6,7.18,Tc0.4 W0.6,"[Element Tc, Element W]","{'Tc': 0.4, 'W': 0.6}",Other,2
Sc0.01V0.99,5.67,Sc0.01 V0.99,"[Element Sc, Element V]","{'Sc': 0.01, 'V': 0.99}",Other,2
Sc0.07V0.93,6.09,Sc0.07 V0.93,"[Element Sc, Element V]","{'Sc': 0.07, 'V': 0.93}",Other,2
Sc0.3V0.7,6.76,Sc0.3 V0.7,"[Element Sc, Element V]","{'Sc': 0.3, 'V': 0.7}",Other,2
Sc0.4V0.6,6.94,Sc0.4 V0.6,"[Element Sc, Element V]","{'Sc': 0.4, 'V': 0.6}",Other,2
Sc0.5V0.5,7.03,Sc0.5 V0.5,"[Element Sc, Element V]","{'Sc': 0.5, 'V': 0.5}",Other,2
Sc0.6V0.4,6.84,Sc0.6 V0.4,"[Element Sc, Element V]","{'Sc': 0.6, 'V': 0.4}",Other,2
Ce0.02Th0.98,0.7,Ce0.02 Th0.98,"[Element Ce, Element Th]","{'Ce': 0.02, 'Th': 0.98}",Other,2
Th0.9988U0.0012,0.55,Th0.9988 U0.0012,"[Element Th, Element U]","{'Th': 0.9988, 'U': 0.0012}",Other,2
Al0.998Mn0.002,0.262,Al0.998 Mn0.002,"[Element Al, Element Mn]","{'Al': 0.998, 'Mn': 0.002}",Other,2
Al99.925Mn0.075,0.7,Al99.925 Mn0.075,"[Element Al, Element Mn]","{'Al': 99.925, 'Mn': 0.075}",Other,2
Th99.92U0.08,0.77,Th99.92 U0.08,"[Element Th, Element U]","{'Th': 99.92, 'U': 0.08}",Other,2
Ti0.63V0.27Al0.1,3.62,Ti0.63 V0.27 Al0.1,"[Element Ti, Element V, Element Al]","{'Ti': 0.63, 'V': 0.27, 'Al': 0.1}",Other,3
Ti0.595V0.255Al0.15,2.36,Ti0.595 V0.255 Al0.15,"[Element Ti, Element V, Element Al]","{'Ti': 0.595, 'V': 0.255, 'Al': 0.15}",Other,3
Ti0.72V0.18Al0.1,3.52,Ti0.72 V0.18 Al0.1,"[Element Ti, Element V, Element Al]","{'Ti': 0.72, 'V': 0.18, 'Al': 0.1}",Other,3
Ti0.54V0.36Al0.1,3.44,Ti0.54 V0.36 Al0.1,"[Element Ti, Element V, Element Al]","{'Ti': 0.54, 'V': 0.36, 'Al': 0.1}",Other,3
Ti0.36V0.54Al0.1,2.7,Ti0.36 V0.54 Al0.1,"[Element Ti, Element V, Element Al]","{'Ti': 0.36, 'V': 0.54, 'Al': 0.1}",Other,3
Ti0.18V0.72Al0.1,2.05,Ti0.18 V0.72 Al0.1,"[Element Ti, Element V, Element Al]","{'Ti': 0.18, 'V': 0.72, 'Al': 0.1}",Other,3
V0.81Cr0.09Al0.1,1.46,V0.81 Cr0.09 Al0.1,"[Element V, Element Cr, Element Al]","{'V': 0.81, 'Cr': 0.09, 'Al': 0.1}",Other,3
Sn0.04V0.96,1.86,Sn0.04 V0.96,"[Element Sn, Element V]","{'Sn': 0.04, 'V': 0.96}",Other,2
Sn0.057V0.943,1.6,Sn0.057 V0.943,"[Element Sn, Element V]","{'Sn': 0.057, 'V': 0.943}",Other,2
Sb0.02V0.98,3.29,Sb0.02 V0.98,"[Element Sb, Element V]","{'Sb': 0.02, 'V': 0.98}",Other,2
Ta0.0082V0.9918,4.9,Ta0.0082 V0.9918,"[Element Ta, Element V]","{'Ta': 0.0082, 'V': 0.9918}",Other,2
Ta0.0355V0.9645,4.55,Ta0.0355 V0.9645,"[Element Ta, Element V]","{'Ta': 0.0355, 'V': 0.9645}",Other,2
Ta0.0568V0.9432,4.46,Ta0.0568 V0.9432,"[Element Ta, Element V]","{'Ta': 0.0568, 'V': 0.9432}",Other,2
Th0.99975U0.025,1.182,Th0.99975 U0.025,"[Element Th, Element U]","{'Th': 0.99975, 'U': 0.025}",Other,2
Th0.9995U0.05,1.014,Th0.9995 U0.05,"[Element Th, Element U]","{'Th': 0.9995, 'U': 0.05}",Other,2
Th0.999U0.1,0.725,Th0.999 U0.1,"[Element Th, Element U]","{'Th': 0.999, 'U': 0.1}",Other,2
Th0.99873U0.127,0.658,Th0.99873 U0.127,"[Element Th, Element U]","{'Th': 0.99873, 'U': 0.127}",Other,2
Th0.9985U0.15,0.495,Th0.9985 U0.15,"[Element Th, Element U]","{'Th': 0.9985, 'U': 0.15}",Other,2
Th0.998U0.2,0.304,Th0.998 U0.2,"[Element Th, Element U]","{'Th': 0.998, 'U': 0.2}",Other,2
Th0.9985U0.0015,0.9,Th0.9985 U0.0015,"[Element Th, Element U]","{'Th': 0.9985, 'U': 0.0015}",Other,2
Th0.998U0.002,0.761,Th0.998 U0.002,"[Element Th, Element U]","{'Th': 0.998, 'U': 0.002}",Other,2
Ir1U1,0.14,Ir1 U1,"[Element Ir, Element U]","{'Ir': 1.0, 'U': 1.0}",Other,2
Ag1B2,6.7,Ag1 B2,"[Element Ag, Element B]","{'Ag': 1.0, 'B': 2.0}",Other,2
Mg1B1.88C0.12,32.9,Mg1 B1.88 C0.12,"[Element Mg, Element B, Element C]","{'Mg': 1.0, 'B': 1.88, 'C': 0.12}",Other,3
Tl1Mo6Se7.5,12.2,Tl1 Mo6 Se7.5,"[Element Tl, Element Mo, Element Se]","{'Tl': 1.0, 'Mo': 6.0, 'Se': 7.5}",Other,3
Sn1.1Mo6Se7.5,4.2,Sn1.1 Mo6 Se7.5,"[Element Sn, Element Mo, Element Se]","{'Sn': 1.1, 'Mo': 6.0, 'Se': 7.5}",Other,3
La3Rh2Ge2,3.5,La3 Rh2 Ge2,"[Element La, Element Rh, Element Ge]","{'La': 3.0, 'Rh': 2.0, 'Ge': 2.0}",Other,3
La1Pt2Ge2,0.55,La1 Pt2 Ge2,"[Element La, Element Pt, Element Ge]","{'La': 1.0, 'Pt': 2.0, 'Ge': 2.0}",Other,3
Lu0.98La0.02Ni2B2C1,16.2,Lu0.98 La0.02 Ni2 B2 C1,"[Element Lu, Element La, Element Ni, Element B, Element C]","{'Lu': 0.98, 'La': 0.02, 'Ni': 2.0, 'B': 2.0, 'C': 1.0}",Other,5
Lu0.95La0.05Ni2B2C1,15.3,Lu0.95 La0.05 Ni2 B2 C1,"[Element Lu, Element La, Element Ni, Element B, Element C]","{'Lu': 0.95, 'La': 0.05, 'Ni': 2.0, 'B': 2.0, 'C': 1.0}",Other,5
Lu0.94La0.06Ni2B2C1,15.1,Lu0.94 La0.06 Ni2 B2 C1,"[Element Lu, Element La, Element Ni, Element B, Element C]","{'Lu': 0.94, 'La': 0.06, 'Ni': 2.0, 'B': 2.0, 'C': 1.0}",Other,5
Lu0.93La0.07Ni2B2C1,13.6,Lu0.93 La0.07 Ni2 B2 C1,"[Element Lu, Element La, Element Ni, Element B, Element C]","{'Lu': 0.93, 'La': 0.07, 'Ni': 2.0, 'B': 2.0, 'C': 1.0}",Other,5
Lu0.92La0.08Ni2B2C1,13.6,Lu0.92 La0.08 Ni2 B2 C1,"[Element Lu, Element La, Element Ni, Element B, Element C]","{'Lu': 0.92, 'La': 0.08, 'Ni': 2.0, 'B': 2.0, 'C': 1.0}",Other,5
Mg1B1.896C0.104,35.0,Mg1 B1.896 C0.104,"[Element Mg, Element B, Element C]","{'Mg': 1.0, 'B': 1.896, 'C': 0.104}",Other,3
Mg1B1.874C0.126,33.3,Mg1 B1.874 C0.126,"[Element Mg, Element B, Element C]","{'Mg': 1.0, 'B': 1.874, 'C': 0.126}",Other,3
Mg1B1.84C0.16,33.0,Mg1 B1.84 C0.16,"[Element Mg, Element B, Element C]","{'Mg': 1.0, 'B': 1.84, 'C': 0.16}",Other,3
Mg1B1.826C0.174,30.8,Mg1 B1.826 C0.174,"[Element Mg, Element B, Element C]","{'Mg': 1.0, 'B': 1.826, 'C': 0.174}",Other,3
Mg1B1.792C0.208,25.5,Mg1 B1.792 C0.208,"[Element Mg, Element B, Element C]","{'Mg': 1.0, 'B': 1.792, 'C': 0.208}",Other,3
Mg1B1.4C0.6,19.45,Mg1 B1.4 C0.6,"[Element Mg, Element B, Element C]","{'Mg': 1.0, 'B': 1.4, 'C': 0.6}",Other,3
Nb1Rh1P1,4.42,Nb1 Rh1 P1,"[Element Nb, Element Rh, Element P]","{'Nb': 1.0, 'Rh': 1.0, 'P': 1.0}",Other,3
Ta1Rh1P1,4.86,Ta1 Rh1 P1,"[Element Ta, Element Rh, Element P]","{'Ta': 1.0, 'Rh': 1.0, 'P': 1.0}",Other,3
Hf1Ru1As1,4.93,Hf1 Ru1 As1,"[Element Hf, Element Ru, Element As]","{'Hf': 1.0, 'Ru': 1.0, 'As': 1.0}",Other,3
Hf1Os1As1,3.2,Hf1 Os1 As1,"[Element Hf, Element Os, Element As]","{'Hf': 1.0, 'Os': 1.0, 'As': 1.0}",Other,3
Lu1B2C2,2.4,Lu1 B2 C2,"[Element Lu, Element B, Element C]","{'Lu': 1.0, 'B': 2.0, 'C': 2.0}",Other,3
La1Ru3.5Si2,7.6,La1 Ru3.5 Si2,"[Element La, Element Ru, Element Si]","{'La': 1.0, 'Ru': 3.5, 'Si': 2.0}",Other,3
Th1Ru3.5Si2,3.98,Th1 Ru3.5 Si2,"[Element Th, Element Ru, Element Si]","{'Th': 1.0, 'Ru': 3.5, 'Si': 2.0}",Other,3
Lu5Rh4Ge10,2.79,Lu5 Rh4 Ge10,"[Element Lu, Element Rh, Element Ge]","{'Lu': 5.0, 'Rh': 4.0, 'Ge': 10.0}",Other,3
Lu5Ir3.4Rh0.6Si10,5.7,Lu5 Ir3.4 Rh0.6 Si10,"[Element Lu, Element Ir, Element Rh, Element Si]","{'Lu': 5.0, 'Ir': 3.4, 'Rh': 0.6, 'Si': 10.0}",Other,4
Lu5Ir3.1Rh0.9Si10,5.77,Lu5 Ir3.1 Rh0.9 Si10,"[Element Lu, Element Ir, Element Rh, Element Si]","{'Lu': 5.0, 'Ir': 3.1, 'Rh': 0.9, 'Si': 10.0}",Other,4
Lu5Ir2.8Rh1.2Si10,5.66,Lu5 Ir2.8 Rh1.2 Si10,"[Element Lu, Element Ir, Element Rh, Element Si]","{'Lu': 5.0, 'Ir': 2.8, 'Rh': 1.2, 'Si': 10.0}",Other,4
Lu5Ir2Rh2Si10,5.45,Lu5 Ir2 Rh2 Si10,"[Element Lu, Element Ir, Element Rh, Element Si]","{'Lu': 5.0, 'Ir': 2.0, 'Rh': 2.0, 'Si': 10.0}",Other,4
Lu5Ir1.2Rh2.8Si10,4.8,Lu5 Ir1.2 Rh2.8 Si10,"[Element Lu, Element Ir, Element Rh, Element Si]","{'Lu': 5.0, 'Ir': 1.2, 'Rh': 2.8, 'Si': 10.0}",Other,4
Ca4Rh6Pb19,3.3,Ca4 Rh6 Pb19,"[Element Ca, Element Rh, Element Pb]","{'Ca': 4.0, 'Rh': 6.0, 'Pb': 19.0}",Other,3
Th1.8Lu0.2C3,10.3,Th1.8 Lu0.2 C3,"[Element Th, Element Lu, Element C]","{'Th': 1.8, 'Lu': 0.2, 'C': 3.0}",Other,3
Th1.6Lu0.4C3,10.9,Th1.6 Lu0.4 C3,"[Element Th, Element Lu, Element C]","{'Th': 1.6, 'Lu': 0.4, 'C': 3.0}",Other,3
Th1.4Lu0.3C3,11.7,Th1.4 Lu0.3 C3,"[Element Th, Element Lu, Element C]","{'Th': 1.4, 'Lu': 0.3, 'C': 3.0}",Other,3
Th1.2Lu0.8C3,11.6,Th1.2 Lu0.8 C3,"[Element Th, Element Lu, Element C]","{'Th': 1.2, 'Lu': 0.8, 'C': 3.0}",Other,3
Th1.8Sc0.2C3,6.7,Th1.8 Sc0.2 C3,"[Element Th, Element Sc, Element C]","{'Th': 1.8, 'Sc': 0.2, 'C': 3.0}",Other,3
Th1.6Sc0.4C3,6.8,Th1.6 Sc0.4 C3,"[Element Th, Element Sc, Element C]","{'Th': 1.6, 'Sc': 0.4, 'C': 3.0}",Other,3
Th1.4Sc0.6C3,7.2,Th1.4 Sc0.6 C3,"[Element Th, Element Sc, Element C]","{'Th': 1.4, 'Sc': 0.6, 'C': 3.0}",Other,3
Th1.2Sc0.8C3,7.1,Th1.2 Sc0.8 C3,"[Element Th, Element Sc, Element C]","{'Th': 1.2, 'Sc': 0.8, 'C': 3.0}",Other,3
Th1Sc1C3,6.5,Th1 Sc1 C3,"[Element Th, Element Sc, Element C]","{'Th': 1.0, 'Sc': 1.0, 'C': 3.0}",Other,3
Th0.8Sc1.2C3,6.0,Th0.8 Sc1.2 C3,"[Element Th, Element Sc, Element C]","{'Th': 0.8, 'Sc': 1.2, 'C': 3.0}",Other,3
In3.3Mo15Se19,4.0,In3.3 Mo15 Se19,"[Element In, Element Mo, Element Se]","{'In': 3.3, 'Mo': 15.0, 'Se': 19.0}",Other,3
Mo15Se19,4.3,Mo15 Se19,"[Element Mo, Element Se]","{'Mo': 15.0, 'Se': 19.0}",Other,2
In3Mo15Se19,3.32,In3 Mo15 Se19,"[Element In, Element Mo, Element Se]","{'In': 3.0, 'Mo': 15.0, 'Se': 19.0}",Other,3
Li3Mo15Se19,3.5,Li3 Mo15 Se19,"[Element Li, Element Mo, Element Se]","{'Li': 3.0, 'Mo': 15.0, 'Se': 19.0}",Other,3
K2In1Mo15Se19,1.3,K2 In1 Mo15 Se19,"[Element K, Element In, Element Mo, Element Se]","{'K': 2.0, 'In': 1.0, 'Mo': 15.0, 'Se': 19.0}",Other,4
In2Mo15Se19,1.5,In2 Mo15 Se19,"[Element In, Element Mo, Element Se]","{'In': 2.0, 'Mo': 15.0, 'Se': 19.0}",Other,3
Li2Mo15Se19,2.6,Li2 Mo15 Se19,"[Element Li, Element Mo, Element Se]","{'Li': 2.0, 'Mo': 15.0, 'Se': 19.0}",Other,3
K2Mo15Se19,2.1,K2 Mo15 Se19,"[Element K, Element Mo, Element Se]","{'K': 2.0, 'Mo': 15.0, 'Se': 19.0}",Other,3
Ca1Pb3,0.65,Ca1 Pb3,"[Element Ca, Element Pb]","{'Ca': 1.0, 'Pb': 3.0}",Other,2
Sc1C0.75Ge0.02,8.5,Sc1 C0.75 Ge0.02,"[Element Sc, Element C, Element Ge]","{'Sc': 1.0, 'C': 0.75, 'Ge': 0.02}",Other,3
Th1Ir1.8Os0.2,5.66,Th1 Ir1.8 Os0.2,"[Element Th, Element Ir, Element Os]","{'Th': 1.0, 'Ir': 1.8, 'Os': 0.2}",Other,3
Th1Ir1.6Os0.4,5.15,Th1 Ir1.6 Os0.4,"[Element Th, Element Ir, Element Os]","{'Th': 1.0, 'Ir': 1.6, 'Os': 0.4}",Other,3
Th1Ir1.4Os0.6,4.41,Th1 Ir1.4 Os0.6,"[Element Th, Element Ir, Element Os]","{'Th': 1.0, 'Ir': 1.4, 'Os': 0.6}",Other,3
Th1Ir1.3Os0.7,2.36,Th1 Ir1.3 Os0.7,"[Element Th, Element Ir, Element Os]","{'Th': 1.0, 'Ir': 1.3, 'Os': 0.7}",Other,3
Th1Ir1.2Os0.8,3.16,Th1 Ir1.2 Os0.8,"[Element Th, Element Ir, Element Os]","{'Th': 1.0, 'Ir': 1.2, 'Os': 0.8}",Other,3
Th1Ir1Os1,3.61,Th1 Ir1 Os1,"[Element Th, Element Ir, Element Os]","{'Th': 1.0, 'Ir': 1.0, 'Os': 1.0}",Other,3
Th1Ir0.8Os1.2,3.22,Th1 Ir0.8 Os1.2,"[Element Th, Element Ir, Element Os]","{'Th': 1.0, 'Ir': 0.8, 'Os': 1.2}",Other,3
Th1Ir0.6Os1.4,3.73,Th1 Ir0.6 Os1.4,"[Element Th, Element Ir, Element Os]","{'Th': 1.0, 'Ir': 0.6, 'Os': 1.4}",Other,3
Th1Ir0.4Os1.6,3.56,Th1 Ir0.4 Os1.6,"[Element Th, Element Ir, Element Os]","{'Th': 1.0, 'Ir': 0.4, 'Os': 1.6}",Other,3
Th1Ir0.2Os1.8,2.93,Th1 Ir0.2 Os1.8,"[Element Th, Element Ir, Element Os]","{'Th': 1.0, 'Ir': 0.2, 'Os': 1.8}",Other,3
Th1Ir0.1Os1.9,2.25,Th1 Ir0.1 Os1.9,"[Element Th, Element Ir, Element Os]","{'Th': 1.0, 'Ir': 0.1, 'Os': 1.9}",Other,3
Th1Ir1.8Ru0.2,4.86,Th1 Ir1.8 Ru0.2,"[Element Th, Element Ir, Element Ru]","{'Th': 1.0, 'Ir': 1.8, 'Ru': 0.2}",Other,3
Th1Ir1.6Ru0.4,2.87,Th1 Ir1.6 Ru0.4,"[Element Th, Element Ir, Element Ru]","{'Th': 1.0, 'Ir': 1.6, 'Ru': 0.4}",Other,3
Th1Ir1.4Ru0.6,2.08,Th1 Ir1.4 Ru0.6,"[Element Th, Element Ir, Element Ru]","{'Th': 1.0, 'Ir': 1.4, 'Ru': 0.6}",Other,3
Th1Ir1.2Ru0.8,1.45,Th1 Ir1.2 Ru0.8,"[Element Th, Element Ir, Element Ru]","{'Th': 1.0, 'Ir': 1.2, 'Ru': 0.8}",Other,3
Th1Ir1Ru1,2.53,Th1 Ir1 Ru1,"[Element Th, Element Ir, Element Ru]","{'Th': 1.0, 'Ir': 1.0, 'Ru': 1.0}",Other,3
Th1Ir0.8Ru1.2,2.53,Th1 Ir0.8 Ru1.2,"[Element Th, Element Ir, Element Ru]","{'Th': 1.0, 'Ir': 0.8, 'Ru': 1.2}",Other,3
Th1Ir0.6Ru1.4,2.87,Th1 Ir0.6 Ru1.4,"[Element Th, Element Ir, Element Ru]","{'Th': 1.0, 'Ir': 0.6, 'Ru': 1.4}",Other,3
Th1Ir0.4Ru1.6,2.87,Th1 Ir0.4 Ru1.6,"[Element Th, Element Ir, Element Ru]","{'Th': 1.0, 'Ir': 0.4, 'Ru': 1.6}",Other,3
Th1Ir0.2Ru1.8,3.1,Th1 Ir0.2 Ru1.8,"[Element Th, Element Ir, Element Ru]","{'Th': 1.0, 'Ir': 0.2, 'Ru': 1.8}",Other,3
La0.95Ce0.05Ru2,3.616,La0.95 Ce0.05 Ru2,"[Element La, Element Ce, Element Ru]","{'La': 0.95, 'Ce': 0.05, 'Ru': 2.0}",Other,3
La0.9Ce0.1Ru2,3.012,La0.9 Ce0.1 Ru2,"[Element La, Element Ce, Element Ru]","{'La': 0.9, 'Ce': 0.1, 'Ru': 2.0}",Other,3