chemical_formula,Tc,composition,elements,stoichiometry,Category,num_elements
Tl0.5Pb0.5Sr4Cu2C0.7N0.3O7,70.0,Tl0.5 Pb0.5 Sr4 Cu2 C0.7 N0.3 O7,"[Element Tl, Element Pb, Element Sr, Element Cu, Element C, Element N, Element O]","{'Tl': 0.5, 'Pb': 0.5, 'Sr': 4.0, 'Cu': 2.0, 'C': 0.7, 'N': 0.3, 'O': 7.0}",Cuprates,7
Tl0.5Pb0.5Sr4Cu2C0.5N0.5O7,70.0,Tl0.5 Pb0.5 Sr4 Cu2 C0.5 N0.5 O7,"[Element Tl, Element Pb, Element Sr, Element Cu, Element C, Element N, Element O]","{'Tl': 0.5, 'Pb': 0.5, 'Sr': 4.0, 'Cu': 2.0, 'C': 0.5, 'N': 0.5, 'O': 7.0}",Cuprates,7
Bi2Sr2Ca1Cu2O8.218,70.0,Bi2 Sr2 Ca1 Cu2 O8.218,"[Element Bi, Element Sr, Element Ca, Element Cu, Element O]","{'Bi': 2.0, 'Sr': 2.0, 'Ca': 1.0, 'Cu': 2.0, 'O': 8.218}",Cuprates,5
Hg1Ba2Cu1O4.049,70.0,Hg1 Ba2 Cu1 O4.049,"[Element Hg, Element Ba, Element Cu, Element O]","{'Hg': 1.0, 'Ba': 2.0, 'Cu': 1.0, 'O': 4.049}",Cuprates,4
Hg1Ba2Cu1O4.066,88.5,Hg1 Ba2 Cu1 O4.066,"[Element Hg, Element Ba, Element Cu, Element O]","{'Hg': 1.0, 'Ba': 2.0, 'Cu': 1.0, 'O': 4.066}",Cuprates,4
Hg1Ba2Cu1O4.096,95.6,Hg1 Ba2 Cu1 O4.096,"[Element Hg, Element Ba, Element Cu, Element O]","{'Hg': 1.0, 'Ba': 2.0, 'Cu': 1.0, 'O': 4.096}",Cuprates,4
Hg1Ba2Cu1O4.097,95.3,Hg1 Ba2 Cu1 O4.097,"[Element Hg, Element Ba, Element Cu, Element O]","{'Hg': 1.0, 'Ba': 2.0, 'Cu': 1.0, 'O': 4.097}",Cuprates,4
Hg1Ba2Cu1O4.101,93.4,Hg1 Ba2 Cu1 O4.101,"[Element Hg, Element Ba, Element Cu, Element O]","{'Hg': 1.0, 'Ba': 2.0, 'Cu': 1.0, 'O': 4.101}",Cuprates,4
Hg1Ba2Cu1O4.103,92.5,Hg1 Ba2 Cu1 O4.103,"[Element Hg, Element Ba, Element Cu, Element O]","{'Hg': 1.0, 'Ba': 2.0, 'Cu': 1.0, 'O': 4.103}",Cuprates,4
Hg1Ba2Cu1O4.105,90.9,Hg1 Ba2 Cu1 O4.105,"[Element Hg, Element Ba, Element Cu, Element O]","{'Hg': 1.0, 'Ba': 2.0, 'Cu': 1.0, 'O': 4.105}",Cuprates,4
Hg1Ba2Cu1O4.108,89.1,Hg1 Ba2 Cu1 O4.108,"[Element Hg, Element Ba, Element Cu, Element O]","{'Hg': 1.0, 'Ba': 2.0, 'Cu': 1.0, 'O': 4.108}",Cuprates,4
Bi1.6Pb0.4Sr2Cu3Ca2O10.08,60.0,Bi1.6 Pb0.4 Sr2 Cu3 Ca2 O10.08,"[Element Bi, Element Pb, Element Sr, Element Cu, Element Ca, Element O]","{'Bi': 1.6, 'Pb': 0.4, 'Sr': 2.0, 'Cu': 3.0, 'Ca': 2.0, 'O': 10.08}",Cuprates,6
Bi1.6Pb0.4Sr2Cu3Ca2O10.04,45.0,Bi1.6 Pb0.4 Sr2 Cu3 Ca2 O10.04,"[Element Bi, Element Pb, Element Sr, Element Cu, Element Ca, Element O]","{'Bi': 1.6, 'Pb': 0.4, 'Sr': 2.0, 'Cu': 3.0, 'Ca': 2.0, 'O': 10.04}",Cuprates,6
Bi1.6Pb0.4Sr2Ca2Cu3O10.34,67.1,Bi1.6 Pb0.4 Sr2 Ca2 Cu3 O10.34,"[Element Bi, Element Pb, Element Sr, Element Ca, Element Cu, Element O]","{'Bi': 1.6, 'Pb': 0.4, 'Sr': 2.0, 'Ca': 2.0, 'Cu': 3.0, 'O': 10.34}",Cuprates,6
Bi1.6Pb0.4Sr2Ca2Cu3O10.24,73.3,Bi1.6 Pb0.4 Sr2 Ca2 Cu3 O10.24,"[Element Bi, Element Pb, Element Sr, Element Ca, Element Cu, Element O]","{'Bi': 1.6, 'Pb': 0.4, 'Sr': 2.0, 'Ca': 2.0, 'Cu': 3.0, 'O': 10.24}",Cuprates,6
Bi1.6Pb0.4Sr2Ca2Cu3O10.15,97.0,Bi1.6 Pb0.4 Sr2 Ca2 Cu3 O10.15,"[Element Bi, Element Pb, Element Sr, Element Ca, Element Cu, Element O]","{'Bi': 1.6, 'Pb': 0.4, 'Sr': 2.0, 'Ca': 2.0, 'Cu': 3.0, 'O': 10.15}",Cuprates,6
Bi1.6Pb0.4Sr2Ca2Cu3O10.07,102.3,Bi1.6 Pb0.4 Sr2 Ca2 Cu3 O10.07,"[Element Bi, Element Pb, Element Sr, Element Ca, Element Cu, Element O]","{'Bi': 1.6, 'Pb': 0.4, 'Sr': 2.0, 'Ca': 2.0, 'Cu': 3.0, 'O': 10.07}",Cuprates,6
Bi1.6Pb0.4Sr2Ca2Cu3O9.91,104.4,Bi1.6 Pb0.4 Sr2 Ca2 Cu3 O9.91,"[Element Bi, Element Pb, Element Sr, Element Ca, Element Cu, Element O]","{'Bi': 1.6, 'Pb': 0.4, 'Sr': 2.0, 'Ca': 2.0, 'Cu': 3.0, 'O': 9.91}",Cuprates,6
Cu0.5C0.5Sr2Ca1Cu2O7,90.0,Cu2.5 C0.5 Sr2 Ca1 O7,"[Element Cu, Element C, Element Sr, Element Ca, Element O]","{'Cu': 2.5, 'C': 0.5, 'Sr': 2.0, 'Ca': 1.0, 'O': 7.0}",Cuprates,5
Cu0.5C0.5Sr2Ca1Cu5O10.8,41.0,Cu5.5 C0.5 Sr2 Ca1 O10.8,"[Element Cu, Element C, Element Sr, Element Ca, Element O]","{'Cu': 5.5, 'C': 0.5, 'Sr': 2.0, 'Ca': 1.0, 'O': 10.8}",Cuprates,5
Ba0.66K0.34Bi1O3,30.0,Ba0.66 K0.34 Bi1 O3,"[Element Ba, Element K, Element Bi, Element O]","{'Ba': 0.66, 'K': 0.34, 'Bi': 1.0, 'O': 3.0}",Other,4
Ba0.59K0.41Bi1O3,31.0,Ba0.59 K0.41 Bi1 O3,"[Element Ba, Element K, Element Bi, Element O]","{'Ba': 0.59, 'K': 0.41, 'Bi': 1.0, 'O': 3.0}",Other,4
Ba0.62K0.38Bi1O3.1,29.5,Ba0.62 K0.38 Bi1 O3.1,"[Element Ba, Element K, Element Bi, Element O]","{'Ba': 0.62, 'K': 0.38, 'Bi': 1.0, 'O': 3.1}",Other,4
Ba0.54K0.46Bi1O3,18.0,Ba0.54 K0.46 Bi1 O3,"[Element Ba, Element K, Element Bi, Element O]","{'Ba': 0.54, 'K': 0.46, 'Bi': 1.0, 'O': 3.0}",Other,4
Ba0.51K0.49Bi1O3,17.2,Ba0.51 K0.49 Bi1 O3,"[Element Ba, Element K, Element Bi, Element O]","{'Ba': 0.51, 'K': 0.49, 'Bi': 1.0, 'O': 3.0}",Other,4
Eu1Ba1Sr1Cu3O6.95,84.0,Eu1 Ba1 Sr1 Cu3 O6.95,"[Element Eu, Element Ba, Element Sr, Element Cu, Element O]","{'Eu': 1.0, 'Ba': 1.0, 'Sr': 1.0, 'Cu': 3.0, 'O': 6.95}",Cuprates,5
Eu1Ba1Sr0.9Ca0.1Cu3O6.95,81.0,Eu1 Ba1 Sr0.9 Ca0.1 Cu3 O6.95,"[Element Eu, Element Ba, Element Sr, Element Ca, Element Cu, Element O]","{'Eu': 1.0, 'Ba': 1.0, 'Sr': 0.9, 'Ca': 0.1, 'Cu': 3.0, 'O': 6.95}",Cuprates,6
Eu1Ba1Sr0.8Ca0.2Cu3O6.95,75.0,Eu1 Ba1 Sr0.8 Ca0.2 Cu3 O6.95,"[Element Eu, Element Ba, Element Sr, Element Ca, Element Cu, Element O]","{'Eu': 1.0, 'Ba': 1.0, 'Sr': 0.8, 'Ca': 0.2, 'Cu': 3.0, 'O': 6.95}",Cuprates,6
Eu1Ba1Sr0.7Ca0.3Cu3O6.95,75.0,Eu1 Ba1 Sr0.7 Ca0.3 Cu3 O6.95,"[Element Eu, Element Ba, Element Sr, Element Ca, Element Cu, Element O]","{'Eu': 1.0, 'Ba': 1.0, 'Sr': 0.7, 'Ca': 0.3, 'Cu': 3.0, 'O': 6.95}",Cuprates,6
Tl1Sr2Ba2Cu2C0.9N0.1O10,61.0,Tl1 Sr2 Ba2 Cu2 C0.9 N0.1 O10,"[Element Tl, Element Sr, Element Ba, Element Cu, Element C, Element N, Element O]","{'Tl': 1.0, 'Sr': 2.0, 'Ba': 2.0, 'Cu': 2.0, 'C': 0.9, 'N': 0.1, 'O': 10.0}",Cuprates,7
Tl1Sr2Ba2Cu2C0.8N0.2O10,61.0,Tl1 Sr2 Ba2 Cu2 C0.8 N0.2 O10,"[Element Tl, Element Sr, Element Ba, Element Cu, Element C, Element N, Element O]","{'Tl': 1.0, 'Sr': 2.0, 'Ba': 2.0, 'Cu': 2.0, 'C': 0.8, 'N': 0.2, 'O': 10.0}",Cuprates,7
Pb0.5Tl0.5Sr4Cu2C0.9N0.1O10,40.0,Pb0.5 Tl0.5 Sr4 Cu2 C0.9 N0.1 O10,"[Element Pb, Element Tl, Element Sr, Element Cu, Element C, Element N, Element O]","{'Pb': 0.5, 'Tl': 0.5, 'Sr': 4.0, 'Cu': 2.0, 'C': 0.9, 'N': 0.1, 'O': 10.0}",Cuprates,7
Pb0.5Tl0.5Sr4Cu2C0.7N0.3O10,28.0,Pb0.5 Tl0.5 Sr4 Cu2 C0.7 N0.3 O10,"[Element Pb, Element Tl, Element Sr, Element Cu, Element C, Element N, Element O]","{'Pb': 0.5, 'Tl': 0.5, 'Sr': 4.0, 'Cu': 2.0, 'C': 0.7, 'N': 0.3, 'O': 10.0}",Cuprates,7
Pb0.5Tl0.5Sr4Cu2C0.5N0.5O10,24.0,Pb0.5 Tl0.5 Sr4 Cu2 C0.5 N0.5 O10,"[Element Pb, Element Tl, Element Sr, Element Cu, Element C, Element N, Element O]","{'Pb': 0.5, 'Tl': 0.5, 'Sr': 4.0, 'Cu': 2.0, 'C': 0.5, 'N': 0.5, 'O': 10.0}",Cuprates,7
Ca0.27Sr0.63Cu1O2,110.0,Ca0.27 Sr0.63 Cu1 O2,"[Element Ca, Element Sr, Element Cu, Element O]","{'Ca': 0.27, 'Sr': 0.63, 'Cu': 1.0, 'O': 2.0}",Cuprates,4
Sr0.9Sm0.1Cu1O2,44.0,Sr0.9 Sm0.1 Cu1 O2,"[Element Sr, Element Sm, Element Cu, Element O]","{'Sr': 0.9, 'Sm': 0.1, 'Cu': 1.0, 'O': 2.0}",Cuprates,4
Sr2Ca1Cu2F2O4.6,99.0,Sr2 Ca1 Cu2 F2 O4.6,"[Element Sr, Element Ca, Element Cu, Element F, Element O]","{'Sr': 2.0, 'Ca': 1.0, 'Cu': 2.0, 'F': 2.0, 'O': 4.6}",Cuprates,5
Sr2Ca2Cu3F3.2O6.2,111.0,Sr2 Ca2 Cu3 F3.2 O6.2,"[Element Sr, Element Ca, Element Cu, Element F, Element O]","{'Sr': 2.0, 'Ca': 2.0, 'Cu': 3.0, 'F': 3.2, 'O': 6.2}",Cuprates,5
Sr2Ca1Cu2O5.5,77.0,Sr2 Ca1 Cu2 O5.5,"[Element Sr, Element Ca, Element Cu, Element O]","{'Sr': 2.0, 'Ca': 1.0, 'Cu': 2.0, 'O': 5.5}",Cuprates,4
Sr2Ca2Cu3O5.5,109.0,Sr2 Ca2 Cu3 O5.5,"[Element Sr, Element Ca, Element Cu, Element O]","{'Sr': 2.0, 'Ca': 2.0, 'Cu': 3.0, 'O': 5.5}",Cuprates,4
Sr2Ca1Cu2.8O7.5,83.0,Sr2 Ca1 Cu2.8 O7.5,"[Element Sr, Element Ca, Element Cu, Element O]","{'Sr': 2.0, 'Ca': 1.0, 'Cu': 2.8, 'O': 7.5}",Cuprates,4
La1Ba1Cu2.94Co0.06O7,57.0,La1 Ba1 Cu2.94 Co0.06 O7,"[Element La, Element Ba, Element Cu, Element Co, Element O]","{'La': 1.0, 'Ba': 1.0, 'Cu': 2.94, 'Co': 0.06, 'O': 7.0}",Cuprates,5
La1Ba1Cu2.88Co0.12O7,40.0,La1 Ba1 Cu2.88 Co0.12 O7,"[Element La, Element Ba, Element Cu, Element Co, Element O]","{'La': 1.0, 'Ba': 1.0, 'Cu': 2.88, 'Co': 0.12, 'O': 7.0}",Cuprates,5
La1Ba1Cu2.82Co0.18O7,14.0,La1 Ba1 Cu2.82 Co0.18 O7,"[Element La, Element Ba, Element Cu, Element Co, Element O]","{'La': 1.0, 'Ba': 1.0, 'Cu': 2.82, 'Co': 0.18, 'O': 7.0}",Cuprates,5
Bi2Sr2Ca1Cu2O8.234,84.0,Bi2 Sr2 Ca1 Cu2 O8.234,"[Element Bi, Element Sr, Element Ca, Element Cu, Element O]","{'Bi': 2.0, 'Sr': 2.0, 'Ca': 1.0, 'Cu': 2.0, 'O': 8.234}",Cuprates,5
Bi2Sr2Ca1Cu2O8.248,86.0,Bi2 Sr2 Ca1 Cu2 O8.248,"[Element Bi, Element Sr, Element Ca, Element Cu, Element O]","{'Bi': 2.0, 'Sr': 2.0, 'Ca': 1.0, 'Cu': 2.0, 'O': 8.248}",Cuprates,5
Bi2Sr2Ca1Cu2O8.272,92.2,Bi2 Sr2 Ca1 Cu2 O8.272,"[Element Bi, Element Sr, Element Ca, Element Cu, Element O]","{'Bi': 2.0, 'Sr': 2.0, 'Ca': 1.0, 'Cu': 2.0, 'O': 8.272}",Cuprates,5
Bi2Sr2Ca1Cu2O8.288,90.2,Bi2 Sr2 Ca1 Cu2 O8.288,"[Element Bi, Element Sr, Element Ca, Element Cu, Element O]","{'Bi': 2.0, 'Sr': 2.0, 'Ca': 1.0, 'Cu': 2.0, 'O': 8.288}",Cuprates,5
Bi2Sr2Ca1Cu2O8.291,89.1,Bi2 Sr2 Ca1 Cu2 O8.291,"[Element Bi, Element Sr, Element Ca, Element Cu, Element O]","{'Bi': 2.0, 'Sr': 2.0, 'Ca': 1.0, 'Cu': 2.0, 'O': 8.291}",Cuprates,5
Bi2Sr2Ca1Cu2O8.293,87.5,Bi2 Sr2 Ca1 Cu2 O8.293,"[Element Bi, Element Sr, Element Ca, Element Cu, Element O]","{'Bi': 2.0, 'Sr': 2.0, 'Ca': 1.0, 'Cu': 2.0, 'O': 8.293}",Cuprates,5
La1.85Sr0.12Ca0.016Ba0.014Cu1O4,30.0,La1.85 Sr0.12 Ca0.016 Ba0.014 Cu1 O4,"[Element La, Element Sr, Element Ca, Element Ba, Element Cu, Element O]","{'La': 1.85, 'Sr': 0.12, 'Ca': 0.016, 'Ba': 0.014, 'Cu': 1.0, 'O': 4.0}",Cuprates,6
La1.85Sr0.09Ca0.034Ba0.026Cu1O4,28.5,La1.85 Sr0.09 Ca0.034 Ba0.026 Cu1 O4,"[Element La, Element Sr, Element Ca, Element Ba, Element Cu, Element O]","{'La': 1.85, 'Sr': 0.09, 'Ca': 0.034, 'Ba': 0.026, 'Cu': 1.0, 'O': 4.0}",Cuprates,6
La1.85Sr0.06Ca0.05Ba0.04Cu1O4,27.0,La1.85 Sr0.06 Ca0.05 Ba0.04 Cu1 O4,"[Element La, Element Sr, Element Ca, Element Ba, Element Cu, Element O]","{'La': 1.85, 'Sr': 0.06, 'Ca': 0.05, 'Ba': 0.04, 'Cu': 1.0, 'O': 4.0}",Cuprates,6
La1.85Sr0.03Ca0.066Ba0.054Cu1O4,24.0,La1.85 Sr0.03 Ca0.066 Ba0.054 Cu1 O4,"[Element La, Element Sr, Element Ca, Element Ba, Element Cu, Element O]","{'La': 1.85, 'Sr': 0.03, 'Ca': 0.066, 'Ba': 0.054, 'Cu': 1.0, 'O': 4.0}",Cuprates,6
La1.85Sr0.016Ca0.074Ba0.06Cu1O4,23.5,La1.85 Sr0.016 Ca0.074 Ba0.06 Cu1 O4,"[Element La, Element Sr, Element Ca, Element Ba, Element Cu, Element O]","{'La': 1.85, 'Sr': 0.016, 'Ca': 0.074, 'Ba': 0.06, 'Cu': 1.0, 'O': 4.0}",Cuprates,6
La1.85Ca0.082Ba0.068Cu1O4,20.0,La1.85 Ca0.082 Ba0.068 Cu1 O4,"[Element La, Element Ca, Element Ba, Element Cu, Element O]","{'La': 1.85, 'Ca': 0.082, 'Ba': 0.068, 'Cu': 1.0, 'O': 4.0}",Cuprates,5
La1.85Sr0.038Ba0.112Cu1O4,32.0,La1.85 Sr0.038 Ba0.112 Cu1 O4,"[Element La, Element Sr, Element Ba, Element Cu, Element O]","{'La': 1.85, 'Sr': 0.038, 'Ba': 0.112, 'Cu': 1.0, 'O': 4.0}",Cuprates,5
Al1Sr2Ho0.5Ca0.5Cu2O7.05,18.0,Al1 Sr2 Ho0.5 Ca0.5 Cu2 O7.05,"[Element Al, Element Sr, Element Ho, Element Ca, Element Cu, Element O]","{'Al': 1.0, 'Sr': 2.0, 'Ho': 0.5, 'Ca': 0.5, 'Cu': 2.0, 'O': 7.05}",Cuprates,6
Al1Sr2Ho0.4Ca0.6Cu2O7,24.0,Al1 Sr2 Ho0.4 Ca0.6 Cu2 O7,"[Element Al, Element Sr, Element Ho, Element Ca, Element Cu, Element O]","{'Al': 1.0, 'Sr': 2.0, 'Ho': 0.4, 'Ca': 0.6, 'Cu': 2.0, 'O': 7.0}",Cuprates,6
B1Sr2Ca4Cu5O13,85.0,B1 Sr2 Ca4 Cu5 O13,"[Element B, Element Sr, Element Ca, Element Cu, Element O]","{'B': 1.0, 'Sr': 2.0, 'Ca': 4.0, 'Cu': 5.0, 'O': 13.0}",Cuprates,5
Sr2Ru1O4,2.7,Sr2 Ru1 O4,"[Element Sr, Element Ru, Element O]","{'Sr': 2.0, 'Ru': 1.0, 'O': 4.0}",Other,3
Ba1K1Bi1O4,23.0,Ba1 K1 Bi1 O4,"[Element Ba, Element K, Element Bi, Element O]","{'Ba': 1.0, 'K': 1.0, 'Bi': 1.0, 'O': 4.0}",Other,4
Tl1Sr1.9Cr0.1Cu1O5,37.5,Tl1 Sr1.9 Cr0.1 Cu1 O5,"[Element Tl, Element Sr, Element Cr, Element Cu, Element O]","{'Tl': 1.0, 'Sr': 1.9, 'Cr': 0.1, 'Cu': 1.0, 'O': 5.0}",Cuprates,5
Tl1Sr1.8Cr0.2Cu1O5,43.0,Tl1 Sr1.8 Cr0.2 Cu1 O5,"[Element Tl, Element Sr, Element Cr, Element Cu, Element O]","{'Tl': 1.0, 'Sr': 1.8, 'Cr': 0.2, 'Cu': 1.0, 'O': 5.0}",Cuprates,5
Tl1Sr1.7Cr0.3Cu1O5,47.0,Tl1 Sr1.7 Cr0.3 Cu1 O5,"[Element Tl, Element Sr, Element Cr, Element Cu, Element O]","{'Tl': 1.0, 'Sr': 1.7, 'Cr': 0.3, 'Cu': 1.0, 'O': 5.0}",Cuprates,5
Tl1Sr1.6Cr0.4Cu1O5,48.0,Tl1 Sr1.6 Cr0.4 Cu1 O5,"[Element Tl, Element Sr, Element Cr, Element Cu, Element O]","{'Tl': 1.0, 'Sr': 1.6, 'Cr': 0.4, 'Cu': 1.0, 'O': 5.0}",Cuprates,5
Cs1Sr1Bi0.25Pb0.75O3,7.5,Cs1 Sr1 Bi0.25 Pb0.75 O3,"[Element Cs, Element Sr, Element Bi, Element Pb, Element O]","{'Cs': 1.0, 'Sr': 1.0, 'Bi': 0.25, 'Pb': 0.75, 'O': 3.0}",Other,5
Hg0.8Bi0.2Sr2Ca2Cu3O8.35,102.0,Hg0.8 Bi0.2 Sr2 Ca2 Cu3 O8.35,"[Element Hg, Element Bi, Element Sr, Element Ca, Element Cu, Element O]","{'Hg': 0.8, 'Bi': 0.2, 'Sr': 2.0, 'Ca': 2.0, 'Cu': 3.0, 'O': 8.35}",Cuprates,6
Hg0.7Bi0.3Sr2Ca2Cu3O8.35,107.0,Hg0.7 Bi0.3 Sr2 Ca2 Cu3 O8.35,"[Element Hg, Element Bi, Element Sr, Element Ca, Element Cu, Element O]","{'Hg': 0.7, 'Bi': 0.3, 'Sr': 2.0, 'Ca': 2.0, 'Cu': 3.0, 'O': 8.35}",Cuprates,6
Hg0.5Bi0.5Sr2Ca2Cu3O8.35,107.0,Hg0.5 Bi0.5 Sr2 Ca2 Cu3 O8.35,"[Element Hg, Element Bi, Element Sr, Element Ca, Element Cu, Element O]","{'Hg': 0.5, 'Bi': 0.5, 'Sr': 2.0, 'Ca': 2.0, 'Cu': 3.0, 'O': 8.35}",Cuprates,6
Hg0.7Bi0.3Sr2Ca2Cu3O8.15,108.0,Hg0.7 Bi0.3 Sr2 Ca2 Cu3 O8.15,"[Element Hg, Element Bi, Element Sr, Element Ca, Element Cu, Element O]","{'Hg': 0.7, 'Bi': 0.3, 'Sr': 2.0, 'Ca': 2.0, 'Cu': 3.0, 'O': 8.15}",Cuprates,6
Hg0.7Bi0.3Sr2Ca2Cu3O8.65,104.0,Hg0.7 Bi0.3 Sr2 Ca2 Cu3 O8.65,"[Element Hg, Element Bi, Element Sr, Element Ca, Element Cu, Element O]","{'Hg': 0.7, 'Bi': 0.3, 'Sr': 2.0, 'Ca': 2.0, 'Cu': 3.0, 'O': 8.65}",Cuprates,6
La1.86K0.14Cu1O3.97,33.0,La1.86 K0.14 Cu1 O3.97,"[Element La, Element K, Element Cu, Element O]","{'La': 1.86, 'K': 0.14, 'Cu': 1.0, 'O': 3.97}",Cuprates,4
Cu0.5C0.5Ba2Ca2Cu3O9,67.0,Cu3.5 C0.5 Ba2 Ca2 O9,"[Element Cu, Element C, Element Ba, Element Ca, Element O]","{'Cu': 3.5, 'C': 0.5, 'Ba': 2.0, 'Ca': 2.0, 'O': 9.0}",Cuprates,5
Cu0.5C0.5Ba2Ca3Cu4O11,117.0,Cu4.5 C0.5 Ba2 Ca3 O11,"[Element Cu, Element C, Element Ba, Element Ca, Element O]","{'Cu': 4.5, 'C': 0.5, 'Ba': 2.0, 'Ca': 3.0, 'O': 11.0}",Cuprates,5
C1Ca3Cu2O7.1,47.0,C1 Ca3 Cu2 O7.1,"[Element C, Element Ca, Element Cu, Element O]","{'C': 1.0, 'Ca': 3.0, 'Cu': 2.0, 'O': 7.1}",Cuprates,4
Cu0.25C0.75Ca3Cu2O6.85,47.0,Cu2.25 C0.75 Ca3 O6.85,"[Element Cu, Element C, Element Ca, Element O]","{'Cu': 2.25, 'C': 0.75, 'Ca': 3.0, 'O': 6.85}",Cuprates,4
Cu0.5C0.5Ca3Cu2O6.6,57.0,Cu2.5 C0.5 Ca3 O6.6,"[Element Cu, Element C, Element Ca, Element O]","{'Cu': 2.5, 'C': 0.5, 'Ca': 3.0, 'O': 6.6}",Cuprates,4
Ge0.3Cu0.7Sr2Ca3Cu4O11.05,7.0,Ge0.3 Cu4.7 Sr2 Ca3 O11.05,"[Element Ge, Element Cu, Element Sr, Element Ca, Element O]","{'Ge': 0.3, 'Cu': 4.7, 'Sr': 2.0, 'Ca': 3.0, 'O': 11.05}",Cuprates,5
Cu0.5P0.5Sr2Ca2Cu3O9.25,82.0,Cu3.5 P0.5 Sr2 Ca2 O9.25,"[Element Cu, Element P, Element Sr, Element Ca, Element O]","{'Cu': 3.5, 'P': 0.5, 'Sr': 2.0, 'Ca': 2.0, 'O': 9.25}",Cuprates,5
La2Cu1O4.044,34.0,La2 Cu1 O4.044,"[Element La, Element Cu, Element O]","{'La': 2.0, 'Cu': 1.0, 'O': 4.044}",Cuprates,3
La2Cu1O4.065,34.0,La2 Cu1 O4.065,"[Element La, Element Cu, Element O]","{'La': 2.0, 'Cu': 1.0, 'O': 4.065}",Cuprates,3
La2Cu1O4.032,30.0,La2 Cu1 O4.032,"[Element La, Element Cu, Element O]","{'La': 2.0, 'Cu': 1.0, 'O': 4.032}",Cuprates,3
Sm1La0.8Sr0.2Cu1O3.95,28.8,Sm1 La0.8 Sr0.2 Cu1 O3.95,"[Element Sm, Element La, Element Sr, Element Cu, Element O]","{'Sm': 1.0, 'La': 0.8, 'Sr': 0.2, 'Cu': 1.0, 'O': 3.95}",Cuprates,5
Sm1La0.8Sr0.2Cu1O3.945,26.0,Sm1 La0.8 Sr0.2 Cu1 O3.945,"[Element Sm, Element La, Element Sr, Element Cu, Element O]","{'Sm': 1.0, 'La': 0.8, 'Sr': 0.2, 'Cu': 1.0, 'O': 3.945}",Cuprates,5
Sm1La0.8Sr0.2Cu1O3.94,24.6,Sm1 La0.8 Sr0.2 Cu1 O3.94,"[Element Sm, Element La, Element Sr, Element Cu, Element O]","{'Sm': 1.0, 'La': 0.8, 'Sr': 0.2, 'Cu': 1.0, 'O': 3.94}",Cuprates,5
Sm1La0.8Sr0.2Cu1O3.925,19.6,Sm1 La0.8 Sr0.2 Cu1 O3.925,"[Element Sm, Element La, Element Sr, Element Cu, Element O]","{'Sm': 1.0, 'La': 0.8, 'Sr': 0.2, 'Cu': 1.0, 'O': 3.925}",Cuprates,5
La1.35Ba1.5Ca0.15Cu3O6.67,43.0,La1.35 Ba1.5 Ca0.15 Cu3 O6.67,"[Element La, Element Ba, Element Ca, Element Cu, Element O]","{'La': 1.35, 'Ba': 1.5, 'Ca': 0.15, 'Cu': 3.0, 'O': 6.67}",Cuprates,5
La1.3Ba1.5Ca0.2Cu3O6.72,48.0,La1.3 Ba1.5 Ca0.2 Cu3 O6.72,"[Element La, Element Ba, Element Ca, Element Cu, Element O]","{'La': 1.3, 'Ba': 1.5, 'Ca': 0.2, 'Cu': 3.0, 'O': 6.72}",Cuprates,5
La1.25Ba1.5Ca0.25Cu3O6.74,70.0,La1.25 Ba1.5 Ca0.25 Cu3 O6.74,"[Element La, Element Ba, Element Ca, Element Cu, Element O]","{'La': 1.25, 'Ba': 1.5, 'Ca': 0.25, 'Cu': 3.0, 'O': 6.74}",Cuprates,5
La1.65Ba1.5Ca0.35Cu3O6.79,72.0,La1.65 Ba1.5 Ca0.35 Cu3 O6.79,"[Element La, Element Ba, Element Ca, Element Cu, Element O]","{'La': 1.65, 'Ba': 1.5, 'Ca': 0.35, 'Cu': 3.0, 'O': 6.79}",Cuprates,5
La1.1Ba1.5Ca0.4Cu3O6.82,72.0,La1.1 Ba1.5 Ca0.4 Cu3 O6.82,"[Element La, Element Ba, Element Ca, Element Cu, Element O]","{'La': 1.1, 'Ba': 1.5, 'Ca': 0.4, 'Cu': 3.0, 'O': 6.82}",Cuprates,5
La1.05Ba1.5Ca0.45Cu3O6.81,74.0,La1.05 Ba1.5 Ca0.45 Cu3 O6.81,"[Element La, Element Ba, Element Ca, Element Cu, Element O]","{'La': 1.05, 'Ba': 1.5, 'Ca': 0.45, 'Cu': 3.0, 'O': 6.81}",Cuprates,5
La1Ba1.5Ca0.5Cu3O6.85,76.0,La1 Ba1.5 Ca0.5 Cu3 O6.85,"[Element La, Element Ba, Element Ca, Element Cu, Element O]","{'La': 1.0, 'Ba': 1.5, 'Ca': 0.5, 'Cu': 3.0, 'O': 6.85}",Cuprates,5
La0.9Ba1.5Ca0.6Cu3O6.74,73.0,La0.9 Ba1.5 Ca0.6 Cu3 O6.74,"[Element La, Element Ba, Element Ca, Element Cu, Element O]","{'La': 0.9, 'Ba': 1.5, 'Ca': 0.6, 'Cu': 3.0, 'O': 6.74}",Cuprates,5
La1Ba1.4Ca0.6Cu3O6.9,74.0,La1 Ba1.4 Ca0.6 Cu3 O6.9,"[Element La, Element Ba, Element Ca, Element Cu, Element O]","{'La': 1.0, 'Ba': 1.4, 'Ca': 0.6, 'Cu': 3.0, 'O': 6.9}",Cuprates,5
La1Ba1.3Ca0.7Cu3O6.92,73.0,La1 Ba1.3 Ca0.7 Cu3 O6.92,"[Element La, Element Ba, Element Ca, Element Cu, Element O]","{'La': 1.0, 'Ba': 1.3, 'Ca': 0.7, 'Cu': 3.0, 'O': 6.92}",Cuprates,5
La1Ba1.2Ca0.8Cu3O6.95,74.0,La1 Ba1.2 Ca0.8 Cu3 O6.95,"[Element La, Element Ba, Element Ca, Element Cu, Element O]","{'La': 1.0, 'Ba': 1.2, 'Ca': 0.8, 'Cu': 3.0, 'O': 6.95}",Cuprates,5
La1Ba1.1Ca0.9Cu3O7.02,75.0,La1 Ba1.1 Ca0.9 Cu3 O7.02,"[Element La, Element Ba, Element Ca, Element Cu, Element O]","{'La': 1.0, 'Ba': 1.1, 'Ca': 0.9, 'Cu': 3.0, 'O': 7.02}",Cuprates,5
La1Ba1Ca1Cu3O6.99,75.0,La1 Ba1 Ca1 Cu3 O6.99,"[Element La, Element Ba, Element Ca, Element Cu, Element O]","{'La': 1.0, 'Ba': 1.0, 'Ca': 1.0, 'Cu': 3.0, 'O': 6.99}",Cuprates,5
La1Ba0.9Ca1.1Cu3O7.05,71.0,La1 Ba0.9 Ca1.1 Cu3 O7.05,"[Element La, Element Ba, Element Ca, Element Cu, Element O]","{'La': 1.0, 'Ba': 0.9, 'Ca': 1.1, 'Cu': 3.0, 'O': 7.05}",Cuprates,5
La1Ba0.8Ca1.2Cu3O7.11,60.0,La1 Ba0.8 Ca1.2 Cu3 O7.11,"[Element La, Element Ba, Element Ca, Element Cu, Element O]","{'La': 1.0, 'Ba': 0.8, 'Ca': 1.2, 'Cu': 3.0, 'O': 7.11}",Cuprates,5
Ca0.1La0.9Ba1.65La0.35Cu3O7.15,57.0,Ca0.1 La1.25 Ba1.65 Cu3 O7.15,"[Element Ca, Element La, Element Ba, Element Cu, Element O]","{'Ca': 0.1, 'La': 1.25, 'Ba': 1.65, 'Cu': 3.0, 'O': 7.15}",Cuprates,5
Ca0.2La0.8Ba1.55La0.45Cu3O7.16,68.0,Ca0.2 La1.25 Ba1.55 Cu3 O7.16,"[Element Ca, Element La, Element Ba, Element Cu, Element O]","{'Ca': 0.2, 'La': 1.25, 'Ba': 1.55, 'Cu': 3.0, 'O': 7.16}",Cuprates,5
Ca0.3La0.7Ba1.45La0.55Cu3O7.16,76.0,Ca0.3 La1.25 Ba1.45 Cu3 O7.16,"[Element Ca, Element La, Element Ba, Element Cu, Element O]","{'Ca': 0.3, 'La': 1.25, 'Ba': 1.45, 'Cu': 3.0, 'O': 7.16}",Cuprates,5
Tl1Sr2Ca2Cu3O9.4,86.0,Tl1 Sr2 Ca2 Cu3 O9.4,"[Element Tl, Element Sr, Element Ca, Element Cu, Element O]","{'Tl': 1.0, 'Sr': 2.0, 'Ca': 2.0, 'Cu': 3.0, 'O': 9.4}",Cuprates,5
Hg0.75Mo0.25Ba2Cu1O4.59,12.0,Hg0.75 Mo0.25 Ba2 Cu1 O4.59,"[Element Hg, Element Mo, Element Ba, Element Cu, Element O]","{'Hg': 0.75, 'Mo': 0.25, 'Ba': 2.0, 'Cu': 1.0, 'O': 4.59}",Cuprates,5
Hg0.75Mo0.25Ba2Cu1O4.51,40.0,Hg0.75 Mo0.25 Ba2 Cu1 O4.51,"[Element Hg, Element Mo, Element Ba, Element Cu, Element O]","{'Hg': 0.75, 'Mo': 0.25, 'Ba': 2.0, 'Cu': 1.0, 'O': 4.51}",Cuprates,5