chemical_formula,Tc,composition,elements,stoichiometry,Category,num_elements
Sr0.958Eu0.042Fe1.76Co0.24As2,13.3,Sr0.958 Eu0.042 Fe1.76 Co0.24 As2,"[Element Sr, Element Eu, Element Fe, Element Co, Element As]","{'Sr': 0.958, 'Eu': 0.042, 'Fe': 1.76, 'Co': 0.24, 'As': 2.0}",Fe-based,5
Sr0.85Eu0.15Fe1.76Co0.24As2,12.5,Sr0.85 Eu0.15 Fe1.76 Co0.24 As2,"[Element Sr, Element Eu, Element Fe, Element Co, Element As]","{'Sr': 0.85, 'Eu': 0.15, 'Fe': 1.76, 'Co': 0.24, 'As': 2.0}",Fe-based,5
Sr0.81Eu0.19Fe1.76Co0.24As2,12.0,Sr0.81 Eu0.19 Fe1.76 Co0.24 As2,"[Element Sr, Element Eu, Element Fe, Element Co, Element As]","{'Sr': 0.81, 'Eu': 0.19, 'Fe': 1.76, 'Co': 0.24, 'As': 2.0}",Fe-based,5
Sr0.66Eu0.34Fe1.76Co0.24As2,9.82,Sr0.66 Eu0.34 Fe1.76 Co0.24 As2,"[Element Sr, Element Eu, Element Fe, Element Co, Element As]","{'Sr': 0.66, 'Eu': 0.34, 'Fe': 1.76, 'Co': 0.24, 'As': 2.0}",Fe-based,5
Sr0.57Eu0.43Fe1.76Co0.24As2,8.78,Sr0.57 Eu0.43 Fe1.76 Co0.24 As2,"[Element Sr, Element Eu, Element Fe, Element Co, Element As]","{'Sr': 0.57, 'Eu': 0.43, 'Fe': 1.76, 'Co': 0.24, 'As': 2.0}",Fe-based,5
Sr0.5Eu0.5Fe1.76Co0.24As2,8.45,Sr0.5 Eu0.5 Fe1.76 Co0.24 As2,"[Element Sr, Element Eu, Element Fe, Element Co, Element As]","{'Sr': 0.5, 'Eu': 0.5, 'Fe': 1.76, 'Co': 0.24, 'As': 2.0}",Fe-based,5
Sr0.4Eu0.6Fe1.76Co0.24As2,7.97,Sr0.4 Eu0.6 Fe1.76 Co0.24 As2,"[Element Sr, Element Eu, Element Fe, Element Co, Element As]","{'Sr': 0.4, 'Eu': 0.6, 'Fe': 1.76, 'Co': 0.24, 'As': 2.0}",Fe-based,5
Sr0.28Eu0.72Fe1.76Co0.24As2,12.3,Sr0.28 Eu0.72 Fe1.76 Co0.24 As2,"[Element Sr, Element Eu, Element Fe, Element Co, Element As]","{'Sr': 0.28, 'Eu': 0.72, 'Fe': 1.76, 'Co': 0.24, 'As': 2.0}",Fe-based,5
Sr0.15Eu0.85Fe1.76Co0.24As2,2.0,Sr0.15 Eu0.85 Fe1.76 Co0.24 As2,"[Element Sr, Element Eu, Element Fe, Element Co, Element As]","{'Sr': 0.15, 'Eu': 0.85, 'Fe': 1.76, 'Co': 0.24, 'As': 2.0}",Fe-based,5
Sr0.05Eu0.95Fe1.76Co0.24As2,2.0,Sr0.05 Eu0.95 Fe1.76 Co0.24 As2,"[Element Sr, Element Eu, Element Fe, Element Co, Element As]","{'Sr': 0.05, 'Eu': 0.95, 'Fe': 1.76, 'Co': 0.24, 'As': 2.0}",Fe-based,5
Eu1Fe1.76Co0.24As2,2.0,Eu1 Fe1.76 Co0.24 As2,"[Element Eu, Element Fe, Element Co, Element As]","{'Eu': 1.0, 'Fe': 1.76, 'Co': 0.24, 'As': 2.0}",Fe-based,4
K0.68Fe1.79Se2,32.0,K0.68 Fe1.79 Se2,"[Element K, Element Fe, Element Se]","{'K': 0.68, 'Fe': 1.79, 'Se': 2.0}",Fe-based,3
Tl0.45K0.34Fe1.84Se2,28.0,Tl0.45 K0.34 Fe1.84 Se2,"[Element Tl, Element K, Element Fe, Element Se]","{'Tl': 0.45, 'K': 0.34, 'Fe': 1.84, 'Se': 2.0}",Fe-based,4
Sr1Pt2As2,5.45,Sr1 Pt2 As2,"[Element Sr, Element Pt, Element As]","{'Sr': 1.0, 'Pt': 2.0, 'As': 2.0}",Other,3
La3Ni2B2N2.7,12.5,La3 Ni2 B2 N2.7,"[Element La, Element Ni, Element B, Element N]","{'La': 3.0, 'Ni': 2.0, 'B': 2.0, 'N': 2.7}",Other,4
La2.95Ce0.05Ni2B2N2.7,10.2,La2.95 Ce0.05 Ni2 B2 N2.7,"[Element La, Element Ce, Element Ni, Element B, Element N]","{'La': 2.95, 'Ce': 0.05, 'Ni': 2.0, 'B': 2.0, 'N': 2.7}",Other,5
La2.9Ce0.1Ni2B2N2.7,4.9,La2.9 Ce0.1 Ni2 B2 N2.7,"[Element La, Element Ce, Element Ni, Element B, Element N]","{'La': 2.9, 'Ce': 0.1, 'Ni': 2.0, 'B': 2.0, 'N': 2.7}",Other,5
Ce1Ni2B2C1,0.1,Ce1 Ni2 B2 C1,"[Element Ce, Element Ni, Element B, Element C]","{'Ce': 1.0, 'Ni': 2.0, 'B': 2.0, 'C': 1.0}",Other,4
Fe1Te0.57Se0.43,15.0,Fe1 Te0.57 Se0.43,"[Element Fe, Element Te, Element Se]","{'Fe': 1.0, 'Te': 0.57, 'Se': 0.43}",Fe-based,3
B12Li2.5,6.62,B12 Li2.5,"[Element B, Element Li]","{'B': 12.0, 'Li': 2.5}",Other,2
B12Li1.7,7.05,B12 Li1.7,"[Element B, Element Li]","{'B': 12.0, 'Li': 1.7}",Other,2
Sr2Mg0.3Ti0.7Fe1As1O3,36.7,Sr2 Mg0.3 Ti0.7 Fe1 As1 O3,"[Element Sr, Element Mg, Element Ti, Element Fe, Element As, Element O]","{'Sr': 2.0, 'Mg': 0.3, 'Ti': 0.7, 'Fe': 1.0, 'As': 1.0, 'O': 3.0}",Fe-based,6
Sr2Mg0.5Ti0.5Fe0.95Co0.05As1O3,26.2,Sr2 Mg0.5 Ti0.5 Fe0.95 Co0.05 As1 O3,"[Element Sr, Element Mg, Element Ti, Element Fe, Element Co, Element As, Element O]","{'Sr': 2.0, 'Mg': 0.5, 'Ti': 0.5, 'Fe': 0.95, 'Co': 0.05, 'As': 1.0, 'O': 3.0}",Fe-based,7
W5Si1B2,5.8,W5 Si1 B2,"[Element W, Element Si, Element B]","{'W': 5.0, 'Si': 1.0, 'B': 2.0}",Other,3
Nb5Si3,0.69,Nb5 Si3,"[Element Nb, Element Si]","{'Nb': 5.0, 'Si': 3.0}",Other,2
Si3W5,2.7,Si3 W5,"[Element Si, Element W]","{'Si': 3.0, 'W': 5.0}",Other,2
Ce1Ge2Rh1,0.45,Ce1 Ge2 Rh1,"[Element Ce, Element Ge, Element Rh]","{'Ce': 1.0, 'Ge': 2.0, 'Rh': 1.0}",Other,3
Tl1Fe1.7Se2,22.4,Tl1 Fe1.7 Se2,"[Element Tl, Element Fe, Element Se]","{'Tl': 1.0, 'Fe': 1.7, 'Se': 2.0}",Fe-based,3
Tl0.63K0.37Fe1.78Se2,28.4,Tl0.63 K0.37 Fe1.78 Se2,"[Element Tl, Element K, Element Fe, Element Se]","{'Tl': 0.63, 'K': 0.37, 'Fe': 1.78, 'Se': 2.0}",Fe-based,4
Tl0.75K0.25Fe1.84Se2,29.8,Tl0.75 K0.25 Fe1.84 Se2,"[Element Tl, Element K, Element Fe, Element Se]","{'Tl': 0.75, 'K': 0.25, 'Fe': 1.84, 'Se': 2.0}",Fe-based,4
Tl0.54K0.46Fe1.88Se2,30.4,Tl0.54 K0.46 Fe1.88 Se2,"[Element Tl, Element K, Element Fe, Element Se]","{'Tl': 0.54, 'K': 0.46, 'Fe': 1.88, 'Se': 2.0}",Fe-based,4
K0.82Fe1.63Se2,32.0,K0.82 Fe1.63 Se2,"[Element K, Element Fe, Element Se]","{'K': 0.82, 'Fe': 1.63, 'Se': 2.0}",Fe-based,3
Tl0.47Rb0.34Fe1.63Se2,32.0,Tl0.47 Rb0.34 Fe1.63 Se2,"[Element Tl, Element Rb, Element Fe, Element Se]","{'Tl': 0.47, 'Rb': 0.34, 'Fe': 1.63, 'Se': 2.0}",Fe-based,4
Ce0.98La0.02Co1In5,2.0,Ce0.98 La0.02 Co1 In5,"[Element Ce, Element La, Element Co, Element In]","{'Ce': 0.98, 'La': 0.02, 'Co': 1.0, 'In': 5.0}",Other,4
Ce0.95La0.05Co1In5,1.68,Ce0.95 La0.05 Co1 In5,"[Element Ce, Element La, Element Co, Element In]","{'Ce': 0.95, 'La': 0.05, 'Co': 1.0, 'In': 5.0}",Other,4
Ce0.925La0.075Co1In5,1.31,Ce0.925 La0.075 Co1 In5,"[Element Ce, Element La, Element Co, Element In]","{'Ce': 0.925, 'La': 0.075, 'Co': 1.0, 'In': 5.0}",Other,4
Ce0.9La0.1Co1In5,1.22,Ce0.9 La0.1 Co1 In5,"[Element Ce, Element La, Element Co, Element In]","{'Ce': 0.9, 'La': 0.1, 'Co': 1.0, 'In': 5.0}",Other,4
Ce0.875La0.125Co1In5,0.86,Ce0.875 La0.125 Co1 In5,"[Element Ce, Element La, Element Co, Element In]","{'Ce': 0.875, 'La': 0.125, 'Co': 1.0, 'In': 5.0}",Other,4
Ce0.85La0.15Co1In5,0.78,Ce0.85 La0.15 Co1 In5,"[Element Ce, Element La, Element Co, Element In]","{'Ce': 0.85, 'La': 0.15, 'Co': 1.0, 'In': 5.0}",Other,4
Fe1Te1,3.0,Fe1 Te1,"[Element Fe, Element Te]","{'Fe': 1.0, 'Te': 1.0}",Fe-based,2
Ba1Pb0.5Hg0.25Bi0.25O3,2.93,Ba1 Pb0.5 Hg0.25 Bi0.25 O3,"[Element Ba, Element Pb, Element Hg, Element Bi, Element O]","{'Ba': 1.0, 'Pb': 0.5, 'Hg': 0.25, 'Bi': 0.25, 'O': 3.0}",Other,5
Ba1Pb0.4Hg0.35Bi0.25O3,9.97,Ba1 Pb0.4 Hg0.35 Bi0.25 O3,"[Element Ba, Element Pb, Element Hg, Element Bi, Element O]","{'Ba': 1.0, 'Pb': 0.4, 'Hg': 0.35, 'Bi': 0.25, 'O': 3.0}",Other,5
Ce0.98Th0.02Pt3Si1,0.4,Ce0.98 Th0.02 Pt3 Si1,"[Element Ce, Element Th, Element Pt, Element Si]","{'Ce': 0.98, 'Th': 0.02, 'Pt': 3.0, 'Si': 1.0}",Other,4
La1Co1.4Fe0.6B2,4.0,La1 Co1.4 Fe0.6 B2,"[Element La, Element Co, Element Fe, Element B]","{'La': 1.0, 'Co': 1.4, 'Fe': 0.6, 'B': 2.0}",Fe-based,4
Ba2Ca2Cu3F1.2O6.8,120.0,Ba2 Ca2 Cu3 F1.2 O6.8,"[Element Ba, Element Ca, Element Cu, Element F, Element O]","{'Ba': 2.0, 'Ca': 2.0, 'Cu': 3.0, 'F': 1.2, 'O': 6.8}",Cuprates,5
Ba2Ca2Cu3F1.6O6.4,102.0,Ba2 Ca2 Cu3 F1.6 O6.4,"[Element Ba, Element Ca, Element Cu, Element F, Element O]","{'Ba': 2.0, 'Ca': 2.0, 'Cu': 3.0, 'F': 1.6, 'O': 6.4}",Cuprates,5
Ba2Ca2Cu3F1.8O6.2,81.0,Ba2 Ca2 Cu3 F1.8 O6.2,"[Element Ba, Element Ca, Element Cu, Element F, Element O]","{'Ba': 2.0, 'Ca': 2.0, 'Cu': 3.0, 'F': 1.8, 'O': 6.2}",Cuprates,5
Sr1Pt1As1,2.4,Sr1 Pt1 As1,"[Element Sr, Element Pt, Element As]","{'Sr': 1.0, 'Pt': 1.0, 'As': 1.0}",Other,3
Ce1Fe1As1F0.05O0.95,11.7,Ce1 Fe1 As1 F0.05 O0.95,"[Element Ce, Element Fe, Element As, Element F, Element O]","{'Ce': 1.0, 'Fe': 1.0, 'As': 1.0, 'F': 0.05, 'O': 0.95}",Fe-based,5
Ce1Fe1As0.95P0.05F0.05O0.95,17.2,Ce1 Fe1 As0.95 P0.05 F0.05 O0.95,"[Element Ce, Element Fe, Element As, Element P, Element F, Element O]","{'Ce': 1.0, 'Fe': 1.0, 'As': 0.95, 'P': 0.05, 'F': 0.05, 'O': 0.95}",Fe-based,6
Ce1Fe1As0.9P0.1F0.05O0.95,19.3,Ce1 Fe1 As0.9 P0.1 F0.05 O0.95,"[Element Ce, Element Fe, Element As, Element P, Element F, Element O]","{'Ce': 1.0, 'Fe': 1.0, 'As': 0.9, 'P': 0.1, 'F': 0.05, 'O': 0.95}",Fe-based,6
Ce1Fe1As0.85P0.15F0.05O0.95,21.8,Ce1 Fe1 As0.85 P0.15 F0.05 O0.95,"[Element Ce, Element Fe, Element As, Element P, Element F, Element O]","{'Ce': 1.0, 'Fe': 1.0, 'As': 0.85, 'P': 0.15, 'F': 0.05, 'O': 0.95}",Fe-based,6
Ce1Fe1As0.8P0.2F0.05O0.95,20.6,Ce1 Fe1 As0.8 P0.2 F0.05 O0.95,"[Element Ce, Element Fe, Element As, Element P, Element F, Element O]","{'Ce': 1.0, 'Fe': 1.0, 'As': 0.8, 'P': 0.2, 'F': 0.05, 'O': 0.95}",Fe-based,6
Ce1Fe1As0.7P0.3F0.05O0.95,18.2,Ce1 Fe1 As0.7 P0.3 F0.05 O0.95,"[Element Ce, Element Fe, Element As, Element P, Element F, Element O]","{'Ce': 1.0, 'Fe': 1.0, 'As': 0.7, 'P': 0.3, 'F': 0.05, 'O': 0.95}",Fe-based,6
Ce1Fe1As0.6P0.4F0.05O0.95,16.0,Ce1 Fe1 As0.6 P0.4 F0.05 O0.95,"[Element Ce, Element Fe, Element As, Element P, Element F, Element O]","{'Ce': 1.0, 'Fe': 1.0, 'As': 0.6, 'P': 0.4, 'F': 0.05, 'O': 0.95}",Fe-based,6
Ba1Fe1.922Rh0.078As2,14.0,Ba1 Fe1.922 Rh0.078 As2,"[Element Ba, Element Fe, Element Rh, Element As]","{'Ba': 1.0, 'Fe': 1.922, 'Rh': 0.078, 'As': 2.0}",Fe-based,4
La0.81Sm0.06Sr0.13Fe1As1O1,18.5,La0.81 Sm0.06 Sr0.13 Fe1 As1 O1,"[Element La, Element Sm, Element Sr, Element Fe, Element As, Element O]","{'La': 0.81, 'Sm': 0.06, 'Sr': 0.13, 'Fe': 1.0, 'As': 1.0, 'O': 1.0}",Fe-based,6
Ca4Al2Fe2As2O5.785,27.0,Ca4 Al2 Fe2 As2 O5.785,"[Element Ca, Element Al, Element Fe, Element As, Element O]","{'Ca': 4.0, 'Al': 2.0, 'Fe': 2.0, 'As': 2.0, 'O': 5.785}",Fe-based,5
Ca4Al2Fe2As2O5.65,26.8,Ca4 Al2 Fe2 As2 O5.65,"[Element Ca, Element Al, Element Fe, Element As, Element O]","{'Ca': 4.0, 'Al': 2.0, 'Fe': 2.0, 'As': 2.0, 'O': 5.65}",Fe-based,5
Ca4Al2Fe2P2O5.8,17.0,Ca4 Al2 Fe2 P2 O5.8,"[Element Ca, Element Al, Element Fe, Element P, Element O]","{'Ca': 4.0, 'Al': 2.0, 'Fe': 2.0, 'P': 2.0, 'O': 5.8}",Fe-based,5
Fe2As2Sr4Sc1.8Ti1.2O8,28.0,Fe2 As2 Sr4 Sc1.8 Ti1.2 O8,"[Element Fe, Element As, Element Sr, Element Sc, Element Ti, Element O]","{'Fe': 2.0, 'As': 2.0, 'Sr': 4.0, 'Sc': 1.8, 'Ti': 1.2, 'O': 8.0}",Fe-based,6
Fe2As2Sr4Sc1.5Ti1.5O8,22.0,Fe2 As2 Sr4 Sc1.5 Ti1.5 O8,"[Element Fe, Element As, Element Sr, Element Sc, Element Ti, Element O]","{'Fe': 2.0, 'As': 2.0, 'Sr': 4.0, 'Sc': 1.5, 'Ti': 1.5, 'O': 8.0}",Fe-based,6
Fe2As2Ba4Sc3O7.5,11.0,Fe2 As2 Ba4 Sc3 O7.5,"[Element Fe, Element As, Element Ba, Element Sc, Element O]","{'Fe': 2.0, 'As': 2.0, 'Ba': 4.0, 'Sc': 3.0, 'O': 7.5}",Fe-based,5
Ba1Fe1.848Rh0.152As2,22.2,Ba1 Fe1.848 Rh0.152 As2,"[Element Ba, Element Fe, Element Rh, Element As]","{'Ba': 1.0, 'Fe': 1.848, 'Rh': 0.152, 'As': 2.0}",Fe-based,4
Ba1Fe1.738Rh0.262As2,8.3,Ba1 Fe1.738 Rh0.262 As2,"[Element Ba, Element Fe, Element Rh, Element As]","{'Ba': 1.0, 'Fe': 1.738, 'Rh': 0.262, 'As': 2.0}",Fe-based,4
K0.75Fe1.68Se2,31.0,K0.75 Fe1.68 Se2,"[Element K, Element Fe, Element Se]","{'K': 0.75, 'Fe': 1.68, 'Se': 2.0}",Fe-based,3
K0.8Fe1.76Se2,32.2,K0.8 Fe1.76 Se2,"[Element K, Element Fe, Element Se]","{'K': 0.8, 'Fe': 1.76, 'Se': 2.0}",Fe-based,3
Tl0.58Rb0.42Fe1.72Se2,31.5,Tl0.58 Rb0.42 Fe1.72 Se2,"[Element Tl, Element Rb, Element Fe, Element Se]","{'Tl': 0.58, 'Rb': 0.42, 'Fe': 1.72, 'Se': 2.0}",Fe-based,4
Cu0.4Bi2Se3,3.09,Cu0.4 Bi2 Se3,"[Element Cu, Element Bi, Element Se]","{'Cu': 0.4, 'Bi': 2.0, 'Se': 3.0}",Other,3
K0.64Fe1.44Se2,31.0,K0.64 Fe1.44 Se2,"[Element K, Element Fe, Element Se]","{'K': 0.64, 'Fe': 1.44, 'Se': 2.0}",Fe-based,3
K0.73Fe1.44Se1.68S0.32,31.4,K0.73 Fe1.44 Se1.68 S0.32,"[Element K, Element Fe, Element Se, Element S]","{'K': 0.73, 'Fe': 1.44, 'Se': 1.68, 'S': 0.32}",Fe-based,4
K0.7Fe1.55Se1.01S0.99,21.4,K0.7 Fe1.55 Se1.01 S0.99,"[Element K, Element Fe, Element Se, Element S]","{'K': 0.7, 'Fe': 1.55, 'Se': 1.01, 'S': 0.99}",Fe-based,4
K0.76Fe1.61Se0.96S1.04,16.4,K0.76 Fe1.61 Se0.96 S1.04,"[Element K, Element Fe, Element Se, Element S]","{'K': 0.76, 'Fe': 1.61, 'Se': 0.96, 'S': 1.04}",Fe-based,4
K0.8Fe2Se0.42S1.58,1.9,K0.8 Fe2 Se0.42 S1.58,"[Element K, Element Fe, Element Se, Element S]","{'K': 0.8, 'Fe': 2.0, 'Se': 0.42, 'S': 1.58}",Fe-based,4
K0.2Fe2S2,1.8,K0.2 Fe2 S2,"[Element K, Element Fe, Element S]","{'K': 0.2, 'Fe': 2.0, 'S': 2.0}",Fe-based,3
K0.65Fe1.41Se2,32.0,K0.65 Fe1.41 Se2,"[Element K, Element Fe, Element Se]","{'K': 0.65, 'Fe': 1.41, 'Se': 2.0}",Fe-based,3
Nb0.7Fe1.55Se1.01S0.99,23.5,Nb0.7 Fe1.55 Se1.01 S0.99,"[Element Nb, Element Fe, Element Se, Element S]","{'Nb': 0.7, 'Fe': 1.55, 'Se': 1.01, 'S': 0.99}",Fe-based,4
Nb0.76Fe1.61Se0.96S1.04,18.0,Nb0.76 Fe1.61 Se0.96 S1.04,"[Element Nb, Element Fe, Element Se, Element S]","{'Nb': 0.76, 'Fe': 1.61, 'Se': 0.96, 'S': 1.04}",Fe-based,4
Li1Fe0.975Co0.025As1,13.8,Li1 Fe0.975 Co0.025 As1,"[Element Li, Element Fe, Element Co, Element As]","{'Li': 1.0, 'Fe': 0.975, 'Co': 0.025, 'As': 1.0}",Fe-based,4
Li1Fe0.95Co0.05As1,10.8,Li1 Fe0.95 Co0.05 As1,"[Element Li, Element Fe, Element Co, Element As]","{'Li': 1.0, 'Fe': 0.95, 'Co': 0.05, 'As': 1.0}",Fe-based,4
Li0.99Fe1.01As1,14.0,Li0.99 Fe1.01 As1,"[Element Li, Element Fe, Element As]","{'Li': 0.99, 'Fe': 1.01, 'As': 1.0}",Fe-based,3
Li0.98Fe1.02As1,4.61,Li0.98 Fe1.02 As1,"[Element Li, Element Fe, Element As]","{'Li': 0.98, 'Fe': 1.02, 'As': 1.0}",Fe-based,3
Li1Fe0.925Co0.075As1,7.66,Li1 Fe0.925 Co0.075 As1,"[Element Li, Element Fe, Element Co, Element As]","{'Li': 1.0, 'Fe': 0.925, 'Co': 0.075, 'As': 1.0}",Fe-based,4
Li1Fe0.99Ni0.01As1,13.35,Li1 Fe0.99 Ni0.01 As1,"[Element Li, Element Fe, Element Ni, Element As]","{'Li': 1.0, 'Fe': 0.99, 'Ni': 0.01, 'As': 1.0}",Fe-based,4
Li1Fe0.98Ni0.02As1,10.58,Li1 Fe0.98 Ni0.02 As1,"[Element Li, Element Fe, Element Ni, Element As]","{'Li': 1.0, 'Fe': 0.98, 'Ni': 0.02, 'As': 1.0}",Fe-based,4
Ca10Fe8.2Pt4.8As18,38.0,Ca10 Fe8.2 Pt4.8 As18,"[Element Ca, Element Fe, Element Pt, Element As]","{'Ca': 10.0, 'Fe': 8.2, 'Pt': 4.8, 'As': 18.0}",Fe-based,4
Ca10Fe9.2Pt3.8As18,13.0,Ca10 Fe9.2 Pt3.8 As18,"[Element Ca, Element Fe, Element Pt, Element As]","{'Ca': 10.0, 'Fe': 9.2, 'Pt': 3.8, 'As': 18.0}",Fe-based,4
La1Ru2P1.6B0.4,2.0,La1 Ru2 P1.6 B0.4,"[Element La, Element Ru, Element P, Element B]","{'La': 1.0, 'Ru': 2.0, 'P': 1.6, 'B': 0.4}",Other,4
Tl0.59Cs0.26Fe1.9Se2,30.3,Tl0.59 Cs0.26 Fe1.9 Se2,"[Element Tl, Element Cs, Element Fe, Element Se]","{'Tl': 0.59, 'Cs': 0.26, 'Fe': 1.9, 'Se': 2.0}",Fe-based,4
Fe1Cr0.01Se1,10.4,Fe1 Cr0.01 Se1,"[Element Fe, Element Cr, Element Se]","{'Fe': 1.0, 'Cr': 0.01, 'Se': 1.0}",Fe-based,3
La1Pt0.9Ni0.1Si1,3.23,La1 Pt0.9 Ni0.1 Si1,"[Element La, Element Pt, Element Ni, Element Si]","{'La': 1.0, 'Pt': 0.9, 'Ni': 0.1, 'Si': 1.0}",Other,4
La1Pt0.8Ni0.2Si1,2.82,La1 Pt0.8 Ni0.2 Si1,"[Element La, Element Pt, Element Ni, Element Si]","{'La': 1.0, 'Pt': 0.8, 'Ni': 0.2, 'Si': 1.0}",Other,4
La1Pt0.7Ni0.3Si1,2.775,La1 Pt0.7 Ni0.3 Si1,"[Element La, Element Pt, Element Ni, Element Si]","{'La': 1.0, 'Pt': 0.7, 'Ni': 0.3, 'Si': 1.0}",Other,4
La1Pt0.6Ni0.4Si1,2.63,La1 Pt0.6 Ni0.4 Si1,"[Element La, Element Pt, Element Ni, Element Si]","{'La': 1.0, 'Pt': 0.6, 'Ni': 0.4, 'Si': 1.0}",Other,4
La1Pt0.5Ni0.5Si1,2.285,La1 Pt0.5 Ni0.5 Si1,"[Element La, Element Pt, Element Ni, Element Si]","{'La': 1.0, 'Pt': 0.5, 'Ni': 0.5, 'Si': 1.0}",Other,4
La1Pt0.4Ni0.6Si1,1.945,La1 Pt0.4 Ni0.6 Si1,"[Element La, Element Pt, Element Ni, Element Si]","{'La': 1.0, 'Pt': 0.4, 'Ni': 0.6, 'Si': 1.0}",Other,4
La1Pt0.3Ni0.7Si1,1.655,La1 Pt0.3 Ni0.7 Si1,"[Element La, Element Pt, Element Ni, Element Si]","{'La': 1.0, 'Pt': 0.3, 'Ni': 0.7, 'Si': 1.0}",Other,4
La1Pt0.1Ni0.9Si1,1.275,La1 Pt0.1 Ni0.9 Si1,"[Element La, Element Pt, Element Ni, Element Si]","{'La': 1.0, 'Pt': 0.1, 'Ni': 0.9, 'Si': 1.0}",Other,4
La1Ni1Si1,1.23,La1 Ni1 Si1,"[Element La, Element Ni, Element Si]","{'La': 1.0, 'Ni': 1.0, 'Si': 1.0}",Other,3
Bi4Te3,2.1,Bi4 Te3,"[Element Bi, Element Te]","{'Bi': 4.0, 'Te': 3.0}",Other,2
Ca0.8La0.2Fe2As2,40.0,Ca0.8 La0.2 Fe2 As2,"[Element Ca, Element La, Element Fe, Element As]","{'Ca': 0.8, 'La': 0.2, 'Fe': 2.0, 'As': 2.0}",Fe-based,4
Ba0.7Rb0.3Fe2As2,36.9,Ba0.7 Rb0.3 Fe2 As2,"[Element Ba, Element Rb, Element Fe, Element As]","{'Ba': 0.7, 'Rb': 0.3, 'Fe': 2.0, 'As': 2.0}",Fe-based,4
Ba0.65Rb0.35Fe2As2,35.8,Ba0.65 Rb0.35 Fe2 As2,"[Element Ba, Element Rb, Element Fe, Element As]","{'Ba': 0.65, 'Rb': 0.35, 'Fe': 2.0, 'As': 2.0}",Fe-based,4
Ba0.6Rb0.4Fe2As2,34.0,Ba0.6 Rb0.4 Fe2 As2,"[Element Ba, Element Rb, Element Fe, Element As]","{'Ba': 0.6, 'Rb': 0.4, 'Fe': 2.0, 'As': 2.0}",Fe-based,4
La1Fe1As1F0.055O0.945,7.0,La1 Fe1 As1 F0.055 O0.945,"[Element La, Element Fe, Element As, Element F, Element O]","{'La': 1.0, 'Fe': 1.0, 'As': 1.0, 'F': 0.055, 'O': 0.945}",Fe-based,5
La1Fe1As0.95Sb0.05F0.2O0.8,30.1,La1 Fe1 As0.95 Sb0.05 F0.2 O0.8,"[Element La, Element Fe, Element As, Element Sb, Element F, Element O]","{'La': 1.0, 'Fe': 1.0, 'As': 0.95, 'Sb': 0.05, 'F': 0.2, 'O': 0.8}",Fe-based,6
La1Fe1As0.9Sb0.1F0.2O0.8,28.6,La1 Fe1 As0.9 Sb0.1 F0.2 O0.8,"[Element La, Element Fe, Element As, Element Sb, Element F, Element O]","{'La': 1.0, 'Fe': 1.0, 'As': 0.9, 'Sb': 0.1, 'F': 0.2, 'O': 0.8}",Fe-based,6
Tl0.4K0.3Fe1.7Se2,28.0,Tl0.4 K0.3 Fe1.7 Se2,"[Element Tl, Element K, Element Fe, Element Se]","{'Tl': 0.4, 'K': 0.3, 'Fe': 1.7, 'Se': 2.0}",Fe-based,4
Tl0.4Rb0.4Fe1.6Se2,32.0,Tl0.4 Rb0.4 Fe1.6 Se2,"[Element Tl, Element Rb, Element Fe, Element Se]","{'Tl': 0.4, 'Rb': 0.4, 'Fe': 1.6, 'Se': 2.0}",Fe-based,4
K0.86Fe1.66Se2,32.0,K0.86 Fe1.66 Se2,"[Element K, Element Fe, Element Se]","{'K': 0.86, 'Fe': 1.66, 'Se': 2.0}",Fe-based,3
K0.8Fe1.7Se2,31.0,K0.8 Fe1.7 Se2,"[Element K, Element Fe, Element Se]","{'K': 0.8, 'Fe': 1.7, 'Se': 2.0}",Fe-based,3
Rb0.8Fe1.7Se2,31.75,Rb0.8 Fe1.7 Se2,"[Element Rb, Element Fe, Element Se]","{'Rb': 0.8, 'Fe': 1.7, 'Se': 2.0}",Fe-based,3
Cs0.8Fe1.7Se2,29.2,Cs0.8 Fe1.7 Se2,"[Element Cs, Element Fe, Element Se]","{'Cs': 0.8, 'Fe': 1.7, 'Se': 2.0}",Fe-based,3
Tl0.4Rb0.4Fe1.7Se2,31.35,Tl0.4 Rb0.4 Fe1.7 Se2,"[Element Tl, Element Rb, Element Fe, Element Se]","{'Tl': 0.4, 'Rb': 0.4, 'Fe': 1.7, 'Se': 2.0}",Fe-based,4
Mo5Si1B2,5.8,Mo5 Si1 B2,"[Element Mo, Element Si, Element B]","{'Mo': 5.0, 'Si': 1.0, 'B': 2.0}",Other,3
Ca0.5Na0.5Fe2As2,19.4,Ca0.5 Na0.5 Fe2 As2,"[Element Ca, Element Na, Element Fe, Element As]","{'Ca': 0.5, 'Na': 0.5, 'Fe': 2.0, 'As': 2.0}",Fe-based,4
Ca0.4Na0.6Fe2As2,25.0,Ca0.4 Na0.6 Fe2 As2,"[Element Ca, Element Na, Element Fe, Element As]","{'Ca': 0.4, 'Na': 0.6, 'Fe': 2.0, 'As': 2.0}",Fe-based,4
Ca0.25Na0.75Fe2As2,33.4,Ca0.25 Na0.75 Fe2 As2,"[Element Ca, Element Na, Element Fe, Element As]","{'Ca': 0.25, 'Na': 0.75, 'Fe': 2.0, 'As': 2.0}",Fe-based,4
Ba0.65Na0.35Fe2As2,29.4,Ba0.65 Na0.35 Fe2 As2,"[Element Ba, Element Na, Element Fe, Element As]","{'Ba': 0.65, 'Na': 0.35, 'Fe': 2.0, 'As': 2.0}",Fe-based,4
Ca0.8Na0.2Fe2As2,14.0,Ca0.8 Na0.2 Fe2 As2,"[Element Ca, Element Na, Element Fe, Element As]","{'Ca': 0.8, 'Na': 0.2, 'Fe': 2.0, 'As': 2.0}",Fe-based,4
Ca0.6Na0.4Fe2As2,21.0,Ca0.6 Na0.4 Fe2 As2,"[Element Ca, Element Na, Element Fe, Element As]","{'Ca': 0.6, 'Na': 0.4, 'Fe': 2.0, 'As': 2.0}",Fe-based,4
Sr1Fe2As1.4P0.6,25.0,Sr1 Fe2 As1.4 P0.6,"[Element Sr, Element Fe, Element As, Element P]","{'Sr': 1.0, 'Fe': 2.0, 'As': 1.4, 'P': 0.6}",Fe-based,4
Sr1Fe2As1.3P0.7,27.0,Sr1 Fe2 As1.3 P0.7,"[Element Sr, Element Fe, Element As, Element P]","{'Sr': 1.0, 'Fe': 2.0, 'As': 1.3, 'P': 0.7}",Fe-based,4
Sr1Fe2As1.2P0.8,27.0,Sr1 Fe2 As1.2 P0.8,"[Element Sr, Element Fe, Element As, Element P]","{'Sr': 1.0, 'Fe': 2.0, 'As': 1.2, 'P': 0.8}",Fe-based,4
Ca1Fe2As1.925P0.075,13.0,Ca1 Fe2 As1.925 P0.075,"[Element Ca, Element Fe, Element As, Element P]","{'Ca': 1.0, 'Fe': 2.0, 'As': 1.925, 'P': 0.075}",Fe-based,4
Ba1Fe2Se3,11.0,Ba1 Fe2 Se3,"[Element Ba, Element Fe, Element Se]","{'Ba': 1.0, 'Fe': 2.0, 'Se': 3.0}",Fe-based,3
Ba1Fe2As3,35.4,Ba1 Fe2 As3,"[Element Ba, Element Fe, Element As]","{'Ba': 1.0, 'Fe': 2.0, 'As': 3.0}",Fe-based,3
Na0.86Fe1As1,26.0,Na0.86 Fe1 As1,"[Element Na, Element Fe, Element As]","{'Na': 0.86, 'Fe': 1.0, 'As': 1.0}",Fe-based,3