chemical_formula,Tc,composition,elements,stoichiometry,Category,num_elements
Ba0.5K0.5Fe2As2,32.0,Ba0.5 K0.5 Fe2 As2,"[Element Ba, Element K, Element Fe, Element As]","{'Ba': 0.5, 'K': 0.5, 'Fe': 2.0, 'As': 2.0}",Fe-based,4
Ge0.92Ga0.08,0.45,Ge0.92 Ga0.08,"[Element Ge, Element Ga]","{'Ge': 0.92, 'Ga': 0.08}",Other,2
Fe1Se0.92,7.2,Fe1 Se0.92,"[Element Fe, Element Se]","{'Fe': 1.0, 'Se': 0.92}",Fe-based,2
C1S1,9.0,C1 S1,"[Element C, Element S]","{'C': 1.0, 'S': 1.0}",Other,2
Li0.8Fe1As1,17.6,Li0.8 Fe1 As1,"[Element Li, Element Fe, Element As]","{'Li': 0.8, 'Fe': 1.0, 'As': 1.0}",Fe-based,3
Li1.1Fe1As1,20.0,Li1.1 Fe1 As1,"[Element Li, Element Fe, Element As]","{'Li': 1.1, 'Fe': 1.0, 'As': 1.0}",Fe-based,3
La1Fe1As1O1.0,10.2,La1 Fe1 As1 O1,"[Element La, Element Fe, Element As, Element O]","{'La': 1.0, 'Fe': 1.0, 'As': 1.0, 'O': 1.0}",Fe-based,4
Ba2Ca3Cu4F1.2O8.8,102.0,Ba2 Ca3 Cu4 F1.2 O8.8,"[Element Ba, Element Ca, Element Cu, Element F, Element O]","{'Ba': 2.0, 'Ca': 3.0, 'Cu': 4.0, 'F': 1.2, 'O': 8.8}",Cuprates,5
Ba2Ca3Cu4F1.4O8.6,91.0,Ba2 Ca3 Cu4 F1.4 O8.6,"[Element Ba, Element Ca, Element Cu, Element F, Element O]","{'Ba': 2.0, 'Ca': 3.0, 'Cu': 4.0, 'F': 1.4, 'O': 8.6}",Cuprates,5
Ba2Ca3Cu4F1.6O8.4,77.0,Ba2 Ca3 Cu4 F1.6 O8.4,"[Element Ba, Element Ca, Element Cu, Element F, Element O]","{'Ba': 2.0, 'Ca': 3.0, 'Cu': 4.0, 'F': 1.6, 'O': 8.4}",Cuprates,5
Ba2Ca3Cu4F1O9.0,103.0,Ba2 Ca3 Cu4 F1 O9,"[Element Ba, Element Ca, Element Cu, Element F, Element O]","{'Ba': 2.0, 'Ca': 3.0, 'Cu': 4.0, 'F': 1.0, 'O': 9.0}",Cuprates,5
Ba2Ca3Cu4F1.8O8.2,66.0,Ba2 Ca3 Cu4 F1.8 O8.2,"[Element Ba, Element Ca, Element Cu, Element F, Element O]","{'Ba': 2.0, 'Ca': 3.0, 'Cu': 4.0, 'F': 1.8, 'O': 8.2}",Cuprates,5
Ba2Ca1Cu2F1.4O4.6,106.0,Ba2 Ca1 Cu2 F1.4 O4.6,"[Element Ba, Element Ca, Element Cu, Element F, Element O]","{'Ba': 2.0, 'Ca': 1.0, 'Cu': 2.0, 'F': 1.4, 'O': 4.6}",Cuprates,5
Ba2Ca1Cu2F1.6O4.4,108.0,Ba2 Ca1 Cu2 F1.6 O4.4,"[Element Ba, Element Ca, Element Cu, Element F, Element O]","{'Ba': 2.0, 'Ca': 1.0, 'Cu': 2.0, 'F': 1.6, 'O': 4.4}",Cuprates,5
Ba2Ca1Cu2F1.8O4.2,87.0,Ba2 Ca1 Cu2 F1.8 O4.2,"[Element Ba, Element Ca, Element Cu, Element F, Element O]","{'Ba': 2.0, 'Ca': 1.0, 'Cu': 2.0, 'F': 1.8, 'O': 4.2}",Cuprates,5
Ba2Ca1Cu2F2O4,82.0,Ba2 Ca1 Cu2 F2 O4,"[Element Ba, Element Ca, Element Cu, Element F, Element O]","{'Ba': 2.0, 'Ca': 1.0, 'Cu': 2.0, 'F': 2.0, 'O': 4.0}",Cuprates,5
Ba2Ca1Cu2F2.2O3.8,40.0,Ba2 Ca1 Cu2 F2.2 O3.8,"[Element Ba, Element Ca, Element Cu, Element F, Element O]","{'Ba': 2.0, 'Ca': 1.0, 'Cu': 2.0, 'F': 2.2, 'O': 3.8}",Cuprates,5
Tm5Rh6Sn18,2.25,Tm5 Rh6 Sn18,"[Element Tm, Element Rh, Element Sn]","{'Tm': 5.0, 'Rh': 6.0, 'Sn': 18.0}",Other,3
Fe1Se0.25Te0.75,13.2,Fe1 Se0.25 Te0.75,"[Element Fe, Element Se, Element Te]","{'Fe': 1.0, 'Se': 0.25, 'Te': 0.75}",Fe-based,3
Fe1Se0.75Te0.25,13.3,Fe1 Se0.75 Te0.25,"[Element Fe, Element Se, Element Te]","{'Fe': 1.0, 'Se': 0.75, 'Te': 0.25}",Fe-based,3
Fe1Se0.7S0.3,5.94,Fe1 Se0.7 S0.3,"[Element Fe, Element Se, Element S]","{'Fe': 1.0, 'Se': 0.7, 'S': 0.3}",Fe-based,3
Fe1Se0.6S0.4,3.73,Fe1 Se0.6 S0.4,"[Element Fe, Element Se, Element S]","{'Fe': 1.0, 'Se': 0.6, 'S': 0.4}",Fe-based,3
Fe1Se0.5S0.5,2.75,Fe1 Se0.5 S0.5,"[Element Fe, Element Se, Element S]","{'Fe': 1.0, 'Se': 0.5, 'S': 0.5}",Fe-based,3
Fe0.95Co0.05Se1,10.0,Fe0.95 Co0.05 Se1,"[Element Fe, Element Co, Element Se]","{'Fe': 0.95, 'Co': 0.05, 'Se': 1.0}",Fe-based,3
Fe0.9Co0.1Se1,5.0,Fe0.9 Co0.1 Se1,"[Element Fe, Element Co, Element Se]","{'Fe': 0.9, 'Co': 0.1, 'Se': 1.0}",Fe-based,3
Fe0.95Ni0.05Se1,10.0,Fe0.95 Ni0.05 Se1,"[Element Fe, Element Ni, Element Se]","{'Fe': 0.95, 'Ni': 0.05, 'Se': 1.0}",Fe-based,3
Ba1Fe1.886Rh0.114As2,24.9,Ba1 Fe1.886 Rh0.114 As2,"[Element Ba, Element Fe, Element Rh, Element As]","{'Ba': 1.0, 'Fe': 1.886, 'Rh': 0.114, 'As': 2.0}",Fe-based,4
Ba1Fe1.808Rh0.192As2,17.8,Ba1 Fe1.808 Rh0.192 As2,"[Element Ba, Element Fe, Element Rh, Element As]","{'Ba': 1.0, 'Fe': 1.808, 'Rh': 0.192, 'As': 2.0}",Fe-based,4
Ba1Fe1.958Rh0.042As2,5.41,Ba1 Fe1.958 Rh0.042 As2,"[Element Ba, Element Fe, Element Rh, Element As]","{'Ba': 1.0, 'Fe': 1.958, 'Rh': 0.042, 'As': 2.0}",Fe-based,4
Sr1Fe1.75Rh0.25As2,21.9,Sr1 Fe1.75 Rh0.25 As2,"[Element Sr, Element Fe, Element Rh, Element As]","{'Sr': 1.0, 'Fe': 1.75, 'Rh': 0.25, 'As': 2.0}",Fe-based,4
Sr1Fe1.57Ir0.43As2,24.2,Sr1 Fe1.57 Ir0.43 As2,"[Element Sr, Element Fe, Element Ir, Element As]","{'Sr': 1.0, 'Fe': 1.57, 'Ir': 0.43, 'As': 2.0}",Fe-based,4
Sm1Fe1As1F0.09O0.91,42.0,Sm1 Fe1 As1 F0.09 O0.91,"[Element Sm, Element Fe, Element As, Element F, Element O]","{'Sm': 1.0, 'Fe': 1.0, 'As': 1.0, 'F': 0.09, 'O': 0.91}",Fe-based,5
La1Fe0.95Ir0.05As1O1,7.18,La1 Fe0.95 Ir0.05 As1 O1,"[Element La, Element Fe, Element Ir, Element As, Element O]","{'La': 1.0, 'Fe': 0.95, 'Ir': 0.05, 'As': 1.0, 'O': 1.0}",Fe-based,5
La1Fe0.925Ir0.075As1O1,11.85,La1 Fe0.925 Ir0.075 As1 O1,"[Element La, Element Fe, Element Ir, Element As, Element O]","{'La': 1.0, 'Fe': 0.925, 'Ir': 0.075, 'As': 1.0, 'O': 1.0}",Fe-based,5
La1Fe0.9Ir0.1As1O1,10.9,La1 Fe0.9 Ir0.1 As1 O1,"[Element La, Element Fe, Element Ir, Element As, Element O]","{'La': 1.0, 'Fe': 0.9, 'Ir': 0.1, 'As': 1.0, 'O': 1.0}",Fe-based,5
La1Fe0.875Ir0.125As1O1,4.56,La1 Fe0.875 Ir0.125 As1 O1,"[Element La, Element Fe, Element Ir, Element As, Element O]","{'La': 1.0, 'Fe': 0.875, 'Ir': 0.125, 'As': 1.0, 'O': 1.0}",Fe-based,5
Fe1Se0.85,8.26,Fe1 Se0.85,"[Element Fe, Element Se]","{'Fe': 1.0, 'Se': 0.85}",Fe-based,2
Ni0.05Ta1S2,3.05,Ni0.05 Ta1 S2,"[Element Ni, Element Ta, Element S]","{'Ni': 0.05, 'Ta': 1.0, 'S': 2.0}",Other,3
Fe0.05Ta1S2,3.0,Fe0.05 Ta1 S2,"[Element Fe, Element Ta, Element S]","{'Fe': 0.05, 'Ta': 1.0, 'S': 2.0}",Fe-based,3
Mg9.3Ir19B16.7,5.8,Mg9.3 Ir19 B16.7,"[Element Mg, Element Ir, Element B]","{'Mg': 9.3, 'Ir': 19.0, 'B': 16.7}",Other,3
Mg10.5Ir19B17.1,4.8,Mg10.5 Ir19 B17.1,"[Element Mg, Element Ir, Element B]","{'Mg': 10.5, 'Ir': 19.0, 'B': 17.1}",Other,3
Ba1Pt1Si3,2.0,Ba1 Pt1 Si3,"[Element Ba, Element Pt, Element Si]","{'Ba': 1.0, 'Pt': 1.0, 'Si': 3.0}",Other,3
Sr1Al1Ge1,6.7,Sr1 Al1 Ge1,"[Element Sr, Element Al, Element Ge]","{'Sr': 1.0, 'Al': 1.0, 'Ge': 1.0}",Other,3
Ba1Al1Ge1,6.3,Ba1 Al1 Ge1,"[Element Ba, Element Al, Element Ge]","{'Ba': 1.0, 'Al': 1.0, 'Ge': 1.0}",Other,3
Ba1Al1Sn1,2.9,Ba1 Al1 Sn1,"[Element Ba, Element Al, Element Sn]","{'Ba': 1.0, 'Al': 1.0, 'Sn': 1.0}",Other,3
Sr1Ga1Ge1,2.6,Sr1 Ga1 Ge1,"[Element Sr, Element Ga, Element Ge]","{'Sr': 1.0, 'Ga': 1.0, 'Ge': 1.0}",Other,3
Ba1Ga1Ge1,2.4,Ba1 Ga1 Ge1,"[Element Ba, Element Ga, Element Ge]","{'Ba': 1.0, 'Ga': 1.0, 'Ge': 1.0}",Other,3
Ho1Fe1As1F0.1O0.9,36.0,Ho1 Fe1 As1 F0.1 O0.9,"[Element Ho, Element Fe, Element As, Element F, Element O]","{'Ho': 1.0, 'Fe': 1.0, 'As': 1.0, 'F': 0.1, 'O': 0.9}",Fe-based,5
Sm1Fe1As1F0.085O0.915,14.0,Sm1 Fe1 As1 F0.085 O0.915,"[Element Sm, Element Fe, Element As, Element F, Element O]","{'Sm': 1.0, 'Fe': 1.0, 'As': 1.0, 'F': 0.085, 'O': 0.915}",Fe-based,5
Tb1Fe1As1O0.9,22.8,Tb1 Fe1 As1 O0.9,"[Element Tb, Element Fe, Element As, Element O]","{'Tb': 1.0, 'Fe': 1.0, 'As': 1.0, 'O': 0.9}",Fe-based,4
Tb1Fe1As1O0.82,43.8,Tb1 Fe1 As1 O0.82,"[Element Tb, Element Fe, Element As, Element O]","{'Tb': 1.0, 'Fe': 1.0, 'As': 1.0, 'O': 0.82}",Fe-based,4
Tb1Fe1As1O0.8,35.7,Tb1 Fe1 As1 O0.8,"[Element Tb, Element Fe, Element As, Element O]","{'Tb': 1.0, 'Fe': 1.0, 'As': 1.0, 'O': 0.8}",Fe-based,4
Tb1Fe1As1O0.75,34.8,Tb1 Fe1 As1 O0.75,"[Element Tb, Element Fe, Element As, Element O]","{'Tb': 1.0, 'Fe': 1.0, 'As': 1.0, 'O': 0.75}",Fe-based,4
Ba1Fe1.844Co0.156As2,21.7,Ba1 Fe1.844 Co0.156 As2,"[Element Ba, Element Fe, Element Co, Element As]","{'Ba': 1.0, 'Fe': 1.844, 'Co': 0.156, 'As': 2.0}",Fe-based,4
Ba1Fe1.952Ni0.048As2,2.39,Ba1 Fe1.952 Ni0.048 As2,"[Element Ba, Element Fe, Element Ni, Element As]","{'Ba': 1.0, 'Fe': 1.952, 'Ni': 0.048, 'As': 2.0}",Fe-based,4
Ba1Fe1.936Ni0.064As2,14.6,Ba1 Fe1.936 Ni0.064 As2,"[Element Ba, Element Fe, Element Ni, Element As]","{'Ba': 1.0, 'Fe': 1.936, 'Ni': 0.064, 'As': 2.0}",Fe-based,4
Ba1Fe1.908Ni0.092As2,17.8,Ba1 Fe1.908 Ni0.092 As2,"[Element Ba, Element Fe, Element Ni, Element As]","{'Ba': 1.0, 'Fe': 1.908, 'Ni': 0.092, 'As': 2.0}",Fe-based,4
Ba1Fe1.892Ni0.108As2,13.9,Ba1 Fe1.892 Ni0.108 As2,"[Element Ba, Element Fe, Element Ni, Element As]","{'Ba': 1.0, 'Fe': 1.892, 'Ni': 0.108, 'As': 2.0}",Fe-based,4
Ba1Fe1.856Ni0.144As2,5.1,Ba1 Fe1.856 Ni0.144 As2,"[Element Ba, Element Fe, Element Ni, Element As]","{'Ba': 1.0, 'Fe': 1.856, 'Ni': 0.144, 'As': 2.0}",Fe-based,4
La0.96Sr0.04Fe1As1O1,3.65,La0.96 Sr0.04 Fe1 As1 O1,"[Element La, Element Sr, Element Fe, Element As, Element O]","{'La': 0.96, 'Sr': 0.04, 'Fe': 1.0, 'As': 1.0, 'O': 1.0}",Fe-based,5
La0.92Sr0.08Fe1As1O1,18.9,La0.92 Sr0.08 Fe1 As1 O1,"[Element La, Element Sr, Element Fe, Element As, Element O]","{'La': 0.92, 'Sr': 0.08, 'Fe': 1.0, 'As': 1.0, 'O': 1.0}",Fe-based,5
La0.9Sr0.1Fe1As1O1,24.6,La0.9 Sr0.1 Fe1 As1 O1,"[Element La, Element Sr, Element Fe, Element As, Element O]","{'La': 0.9, 'Sr': 0.1, 'Fe': 1.0, 'As': 1.0, 'O': 1.0}",Fe-based,5
La0.89Sr0.11Fe1As1O1,25.5,La0.89 Sr0.11 Fe1 As1 O1,"[Element La, Element Sr, Element Fe, Element As, Element O]","{'La': 0.89, 'Sr': 0.11, 'Fe': 1.0, 'As': 1.0, 'O': 1.0}",Fe-based,5
La0.85Sr0.15Fe1As1O1,25.4,La0.85 Sr0.15 Fe1 As1 O1,"[Element La, Element Sr, Element Fe, Element As, Element O]","{'La': 0.85, 'Sr': 0.15, 'Fe': 1.0, 'As': 1.0, 'O': 1.0}",Fe-based,5
La0.8Sr0.2Fe1As1O1,24.9,La0.8 Sr0.2 Fe1 As1 O1,"[Element La, Element Sr, Element Fe, Element As, Element O]","{'La': 0.8, 'Sr': 0.2, 'Fe': 1.0, 'As': 1.0, 'O': 1.0}",Fe-based,5
Pr0.95Sr0.05Fe1As1O1,4.86,Pr0.95 Sr0.05 Fe1 As1 O1,"[Element Pr, Element Sr, Element Fe, Element As, Element O]","{'Pr': 0.95, 'Sr': 0.05, 'Fe': 1.0, 'As': 1.0, 'O': 1.0}",Fe-based,5
Pr0.9Sr0.1Fe1As1O1,12.8,Pr0.9 Sr0.1 Fe1 As1 O1,"[Element Pr, Element Sr, Element Fe, Element As, Element O]","{'Pr': 0.9, 'Sr': 0.1, 'Fe': 1.0, 'As': 1.0, 'O': 1.0}",Fe-based,5
Pr0.85Sr0.15Fe1As1O1,15.5,Pr0.85 Sr0.15 Fe1 As1 O1,"[Element Pr, Element Sr, Element Fe, Element As, Element O]","{'Pr': 0.85, 'Sr': 0.15, 'Fe': 1.0, 'As': 1.0, 'O': 1.0}",Fe-based,5
Lu1.86Sc0.14Fe3Si5,3.51,Lu1.86 Sc0.14 Fe3 Si5,"[Element Lu, Element Sc, Element Fe, Element Si]","{'Lu': 1.86, 'Sc': 0.14, 'Fe': 3.0, 'Si': 5.0}",Fe-based,4
Lu1.94Sc0.06Fe3Si5,4.83,Lu1.94 Sc0.06 Fe3 Si5,"[Element Lu, Element Sc, Element Fe, Element Si]","{'Lu': 1.94, 'Sc': 0.06, 'Fe': 3.0, 'Si': 5.0}",Fe-based,4
Lu1.9Sc0.1Fe3Si5,4.33,Lu1.9 Sc0.1 Fe3 Si5,"[Element Lu, Element Sc, Element Fe, Element Si]","{'Lu': 1.9, 'Sc': 0.1, 'Fe': 3.0, 'Si': 5.0}",Fe-based,4
Sr1Fe1.5Ru0.5As2,13.5,Sr1 Fe1.5 Ru0.5 As2,"[Element Sr, Element Fe, Element Ru, Element As]","{'Sr': 1.0, 'Fe': 1.5, 'Ru': 0.5, 'As': 2.0}",Fe-based,4
Sr1Fe1.3Ru0.7As2,13.5,Sr1 Fe1.3 Ru0.7 As2,"[Element Sr, Element Fe, Element Ru, Element As]","{'Sr': 1.0, 'Fe': 1.3, 'Ru': 0.7, 'As': 2.0}",Fe-based,4
Bi14Rh3,2.85,Bi14 Rh3,"[Element Bi, Element Rh]","{'Bi': 14.0, 'Rh': 3.0}",Other,2
Ca2Pt3Si5,1.3,Ca2 Pt3 Si5,"[Element Ca, Element Pt, Element Si]","{'Ca': 2.0, 'Pt': 3.0, 'Si': 5.0}",Other,3
Fe1Se0.38Te0.62,13.5,Fe1 Se0.38 Te0.62,"[Element Fe, Element Se, Element Te]","{'Fe': 1.0, 'Se': 0.38, 'Te': 0.62}",Fe-based,3
Fe1Se0.13Te0.87,6.0,Fe1 Se0.13 Te0.87,"[Element Fe, Element Se, Element Te]","{'Fe': 1.0, 'Se': 0.13, 'Te': 0.87}",Fe-based,3
Fe1Se0.39Te0.61,14.0,Fe1 Se0.39 Te0.61,"[Element Fe, Element Se, Element Te]","{'Fe': 1.0, 'Se': 0.39, 'Te': 0.61}",Fe-based,3
Bi1.09Ta1Se3.09,1.8,Bi1.09 Ta1 Se3.09,"[Element Bi, Element Ta, Element Se]","{'Bi': 1.09, 'Ta': 1.0, 'Se': 3.09}",Other,3
Bi1.09Ta2Se5.09,1.8,Bi1.09 Ta2 Se5.09,"[Element Bi, Element Ta, Element Se]","{'Bi': 1.09, 'Ta': 2.0, 'Se': 5.09}",Other,3
Bi1.09Ta2S5.09,2.65,Bi1.09 Ta2 S5.09,"[Element Bi, Element Ta, Element S]","{'Bi': 1.09, 'Ta': 2.0, 'S': 5.09}",Other,3
Pb1.14Nb2Se5.14,3.4,Pb1.14 Nb2 Se5.14,"[Element Pb, Element Nb, Element Se]","{'Pb': 1.14, 'Nb': 2.0, 'Se': 5.14}",Other,3
Pb1.14Nb3Se7.14,4.8,Pb1.14 Nb3 Se7.14,"[Element Pb, Element Nb, Element Se]","{'Pb': 1.14, 'Nb': 3.0, 'Se': 7.14}",Other,3
Fe1.06Te0.5Se0.5,14.0,Fe1.06 Te0.5 Se0.5,"[Element Fe, Element Te, Element Se]","{'Fe': 1.06, 'Te': 0.5, 'Se': 0.5}",Fe-based,3
Pr1Fe1As1F0.082O0.918,14.6,Pr1 Fe1 As1 F0.082 O0.918,"[Element Pr, Element Fe, Element As, Element F, Element O]","{'Pr': 1.0, 'Fe': 1.0, 'As': 1.0, 'F': 0.082, 'O': 0.918}",Fe-based,5
Pr1Fe1As1F0.154O0.846,46.4,Pr1 Fe1 As1 F0.154 O0.846,"[Element Pr, Element Fe, Element As, Element F, Element O]","{'Pr': 1.0, 'Fe': 1.0, 'As': 1.0, 'F': 0.154, 'O': 0.846}",Fe-based,5
Pr1Fe1As1F0.225O0.775,50.0,Pr1 Fe1 As1 F0.225 O0.775,"[Element Pr, Element Fe, Element As, Element F, Element O]","{'Pr': 1.0, 'Fe': 1.0, 'As': 1.0, 'F': 0.225, 'O': 0.775}",Fe-based,5
La1.943Sr0.057Cu1O4,4.51,La1.943 Sr0.057 Cu1 O4,"[Element La, Element Sr, Element Cu, Element O]","{'La': 1.943, 'Sr': 0.057, 'Cu': 1.0, 'O': 4.0}",Cuprates,4
La1.943Sr0.076Cu1O4,16.5,La1.943 Sr0.076 Cu1 O4,"[Element La, Element Sr, Element Cu, Element O]","{'La': 1.943, 'Sr': 0.076, 'Cu': 1.0, 'O': 4.0}",Cuprates,4
La1.943Sr0.089Cu1O4,24.6,La1.943 Sr0.089 Cu1 O4,"[Element La, Element Sr, Element Cu, Element O]","{'La': 1.943, 'Sr': 0.089, 'Cu': 1.0, 'O': 4.0}",Cuprates,4
La1.943Sr0.115Cu1O4,24.9,La1.943 Sr0.115 Cu1 O4,"[Element La, Element Sr, Element Cu, Element O]","{'La': 1.943, 'Sr': 0.115, 'Cu': 1.0, 'O': 4.0}",Cuprates,4
La1.943Sr0.13Cu1O4,33.3,La1.943 Sr0.13 Cu1 O4,"[Element La, Element Sr, Element Cu, Element O]","{'La': 1.943, 'Sr': 0.13, 'Cu': 1.0, 'O': 4.0}",Cuprates,4
La1.943Sr0.178Cu1O4,34.3,La1.943 Sr0.178 Cu1 O4,"[Element La, Element Sr, Element Cu, Element O]","{'La': 1.943, 'Sr': 0.178, 'Cu': 1.0, 'O': 4.0}",Cuprates,4
La1.822Sr0.178Cu1O4,36.0,La1.822 Sr0.178 Cu1 O4,"[Element La, Element Sr, Element Cu, Element O]","{'La': 1.822, 'Sr': 0.178, 'Cu': 1.0, 'O': 4.0}",Cuprates,4
La1.798Sr0.202Cu1O4,30.5,La1.798 Sr0.202 Cu1 O4,"[Element La, Element Sr, Element Cu, Element O]","{'La': 1.798, 'Sr': 0.202, 'Cu': 1.0, 'O': 4.0}",Cuprates,4
La1.782Sr0.218Cu1O4,25.0,La1.782 Sr0.218 Cu1 O4,"[Element La, Element Sr, Element Cu, Element O]","{'La': 1.782, 'Sr': 0.218, 'Cu': 1.0, 'O': 4.0}",Cuprates,4
La1.762Sr0.238Cu1O4,19.5,La1.762 Sr0.238 Cu1 O4,"[Element La, Element Sr, Element Cu, Element O]","{'La': 1.762, 'Sr': 0.238, 'Cu': 1.0, 'O': 4.0}",Cuprates,4
Ca1Fe1.94Ni0.06As2,15.0,Ca1 Fe1.94 Ni0.06 As2,"[Element Ca, Element Fe, Element Ni, Element As]","{'Ca': 1.0, 'Fe': 1.94, 'Ni': 0.06, 'As': 2.0}",Fe-based,4
Fe1Se0.82,7.83,Fe1 Se0.82,"[Element Fe, Element Se]","{'Fe': 1.0, 'Se': 0.82}",Fe-based,2
Fe0.99Ni0.01Se0.82,6.65,Fe0.99 Ni0.01 Se0.82,"[Element Fe, Element Ni, Element Se]","{'Fe': 0.99, 'Ni': 0.01, 'Se': 0.82}",Fe-based,3
Fe0.98Ni0.02Se0.82,11.3,Fe0.98 Ni0.02 Se0.82,"[Element Fe, Element Ni, Element Se]","{'Fe': 0.98, 'Ni': 0.02, 'Se': 0.82}",Fe-based,3
C6Ca1H,10.0,C6 Ca1 H1,"[Element C, Element Ca, Element H]","{'C': 6.0, 'Ca': 1.0, 'H': 1.0}",Hydrides,3
Fe1Te0.6Se0.4,14.8,Fe1 Te0.6 Se0.4,"[Element Fe, Element Te, Element Se]","{'Fe': 1.0, 'Te': 0.6, 'Se': 0.4}",Fe-based,3
Fe1.18Te0.6Se0.4,11.6,Fe1.18 Te0.6 Se0.4,"[Element Fe, Element Te, Element Se]","{'Fe': 1.18, 'Te': 0.6, 'Se': 0.4}",Fe-based,3
C8K1H0.19,0.22,C8 K1 H0.19,"[Element C, Element K, Element H]","{'C': 8.0, 'K': 1.0, 'H': 0.19}",Hydrides,3
Ga1V3H0.37,8.1,Ga1 V3 H0.37,"[Element Ga, Element V, Element H]","{'Ga': 1.0, 'V': 3.0, 'H': 0.37}",Hydrides,3
Ge1V3H0.033,5.83,Ge1 V3 H0.033,"[Element Ge, Element V, Element H]","{'Ge': 1.0, 'V': 3.0, 'H': 0.033}",Hydrides,3
Ba0.75K0.25Fe2As2,26.0,Ba0.75 K0.25 Fe2 As2,"[Element Ba, Element K, Element Fe, Element As]","{'Ba': 0.75, 'K': 0.25, 'Fe': 2.0, 'As': 2.0}",Fe-based,4
Ba0.72K0.28Fe2As2,30.0,Ba0.72 K0.28 Fe2 As2,"[Element Ba, Element K, Element Fe, Element As]","{'Ba': 0.72, 'K': 0.28, 'Fe': 2.0, 'As': 2.0}",Fe-based,4
Fe1.03Se0.25Te0.75,12.5,Fe1.03 Se0.25 Te0.75,"[Element Fe, Element Se, Element Te]","{'Fe': 1.03, 'Se': 0.25, 'Te': 0.75}",Fe-based,3
Fe1.03Se0.5Te0.5,14.3,Fe1.03 Se0.5 Te0.5,"[Element Fe, Element Se, Element Te]","{'Fe': 1.03, 'Se': 0.5, 'Te': 0.5}",Fe-based,3
Ti1Se2,1.8,Ti1 Se2,"[Element Ti, Element Se]","{'Ti': 1.0, 'Se': 2.0}",Other,2
Fe1.12Se0.03Te0.97,6.5,Fe1.12 Se0.03 Te0.97,"[Element Fe, Element Se, Element Te]","{'Fe': 1.12, 'Se': 0.03, 'Te': 0.97}",Fe-based,3
Fe1.13Se0.1Te0.85,5.25,Fe1.13 Se0.1 Te0.85,"[Element Fe, Element Se, Element Te]","{'Fe': 1.13, 'Se': 0.1, 'Te': 0.85}",Fe-based,3
Fe1.12Se0.11Te0.83,6.05,Fe1.12 Se0.11 Te0.83,"[Element Fe, Element Se, Element Te]","{'Fe': 1.12, 'Se': 0.11, 'Te': 0.83}",Fe-based,3
Fe1.06Se0.14Te0.83,7.85,Fe1.06 Se0.14 Te0.83,"[Element Fe, Element Se, Element Te]","{'Fe': 1.06, 'Se': 0.14, 'Te': 0.83}",Fe-based,3
Fe0.98Se0.15Te0.9,8.8,Fe0.98 Se0.15 Te0.9,"[Element Fe, Element Se, Element Te]","{'Fe': 0.98, 'Se': 0.15, 'Te': 0.9}",Fe-based,3
Fe1Se0.1Te0.9,10.0,Fe1 Se0.1 Te0.9,"[Element Fe, Element Se, Element Te]","{'Fe': 1.0, 'Se': 0.1, 'Te': 0.9}",Fe-based,3
Fe1.049Se0.2Te0.8,11.0,Fe1.049 Se0.2 Te0.8,"[Element Fe, Element Se, Element Te]","{'Fe': 1.049, 'Se': 0.2, 'Te': 0.8}",Fe-based,3
Fe1.053Se0.3Te0.7,12.5,Fe1.053 Se0.3 Te0.7,"[Element Fe, Element Se, Element Te]","{'Fe': 1.053, 'Se': 0.3, 'Te': 0.7}",Fe-based,3
Fe1.013Se0.3Te0.7,13.0,Fe1.013 Se0.3 Te0.7,"[Element Fe, Element Se, Element Te]","{'Fe': 1.013, 'Se': 0.3, 'Te': 0.7}",Fe-based,3
Fe1Se0.45Te0.55,12.6,Fe1 Se0.45 Te0.55,"[Element Fe, Element Se, Element Te]","{'Fe': 1.0, 'Se': 0.45, 'Te': 0.55}",Fe-based,3
Sr2V1Fe1As1O3,34.45,Sr2 V1 Fe1 As1 O3,"[Element Sr, Element V, Element Fe, Element As, Element O]","{'Sr': 2.0, 'V': 1.0, 'Fe': 1.0, 'As': 1.0, 'O': 3.0}",Fe-based,5
Sr2Sc1Fe1P1O3,12.0,Sr2 Sc1 Fe1 P1 O3,"[Element Sr, Element Sc, Element Fe, Element P, Element O]","{'Sr': 2.0, 'Sc': 1.0, 'Fe': 1.0, 'P': 1.0, 'O': 3.0}",Fe-based,5
Sr0.6La0.4Fe1As1F1,27.05,Sr0.6 La0.4 Fe1 As1 F1,"[Element Sr, Element La, Element Fe, Element As, Element F]","{'Sr': 0.6, 'La': 0.4, 'Fe': 1.0, 'As': 1.0, 'F': 1.0}",Fe-based,5
Ca0.4Pr0.6Fe1As1F1,50.0,Ca0.4 Pr0.6 Fe1 As1 F1,"[Element Ca, Element Pr, Element Fe, Element As, Element F]","{'Ca': 0.4, 'Pr': 0.6, 'Fe': 1.0, 'As': 1.0, 'F': 1.0}",Fe-based,5
Pr1Fe0.925Co0.075As1O1,15.0,Pr1 Fe0.925 Co0.075 As1 O1,"[Element Pr, Element Fe, Element Co, Element As, Element O]","{'Pr': 1.0, 'Fe': 0.925, 'Co': 0.075, 'As': 1.0, 'O': 1.0}",Fe-based,5
Ba1Fe2As1.6P0.4,7.2,Ba1 Fe2 As1.6 P0.4,"[Element Ba, Element Fe, Element As, Element P]","{'Ba': 1.0, 'Fe': 2.0, 'As': 1.6, 'P': 0.4}",Fe-based,4
Ba1Fe2As1.52P0.48,30.1,Ba1 Fe2 As1.52 P0.48,"[Element Ba, Element Fe, Element As, Element P]","{'Ba': 1.0, 'Fe': 2.0, 'As': 1.52, 'P': 0.48}",Fe-based,4
Ba1Fe2As1.36P0.64,29.1,Ba1 Fe2 As1.36 P0.64,"[Element Ba, Element Fe, Element As, Element P]","{'Ba': 1.0, 'Fe': 2.0, 'As': 1.36, 'P': 0.64}",Fe-based,4
Ba1Fe2As1.28P0.72,22.4,Ba1 Fe2 As1.28 P0.72,"[Element Ba, Element Fe, Element As, Element P]","{'Ba': 1.0, 'Fe': 2.0, 'As': 1.28, 'P': 0.72}",Fe-based,4
Ba1Fe2As1.06P0.94,20.8,Ba1 Fe2 As1.06 P0.94,"[Element Ba, Element Fe, Element As, Element P]","{'Ba': 1.0, 'Fe': 2.0, 'As': 1.06, 'P': 0.94}",Fe-based,4
Ba1Fe2As0.88P1.12,13.9,Ba1 Fe2 As0.88 P1.12,"[Element Ba, Element Fe, Element As, Element P]","{'Ba': 1.0, 'Fe': 2.0, 'As': 0.88, 'P': 1.12}",Fe-based,4
Ba1Fe2As0.74P1.26,7.73,Ba1 Fe2 As0.74 P1.26,"[Element Ba, Element Fe, Element As, Element P]","{'Ba': 1.0, 'Fe': 2.0, 'As': 0.74, 'P': 1.26}",Fe-based,4
Li1Fe1P1,6.0,Li1 Fe1 P1,"[Element Li, Element Fe, Element P]","{'Li': 1.0, 'Fe': 1.0, 'P': 1.0}",Fe-based,3
Sr1Fe1.88Ni0.12As2,3.74,Sr1 Fe1.88 Ni0.12 As2,"[Element Sr, Element Fe, Element Ni, Element As]","{'Sr': 1.0, 'Fe': 1.88, 'Ni': 0.12, 'As': 2.0}",Fe-based,4
Sr1Fe1.84Ni0.16As2,8.65,Sr1 Fe1.84 Ni0.16 As2,"[Element Sr, Element Fe, Element Ni, Element As]","{'Sr': 1.0, 'Fe': 1.84, 'Ni': 0.16, 'As': 2.0}",Fe-based,4