chemical_formula,Tc,composition,elements,stoichiometry,Category,num_elements
Al0.6Mg0.4,1.7,Al0.6 Mg0.4,"[Element Al, Element Mg]","{'Al': 0.6, 'Mg': 0.4}",Other,2
Al0.61Mg0.39,0.85,Al0.61 Mg0.39,"[Element Al, Element Mg]","{'Al': 0.61, 'Mg': 0.39}",Other,2
Al0.28Mg0.18,1.63,Al0.28 Mg0.18,"[Element Al, Element Mg]","{'Al': 0.28, 'Mg': 0.18}",Other,2
Al3Mg2,0.84,Al3 Mg2,"[Element Al, Element Mg]","{'Al': 3.0, 'Mg': 2.0}",Other,2
Al1Nb3,18.1,Al1 Nb3,"[Element Al, Element Nb]","{'Al': 1.0, 'Nb': 3.0}",Other,2
Al0.33Nb0.67,13.5,Al0.33 Nb0.67,"[Element Al, Element Nb]","{'Al': 0.33, 'Nb': 0.67}",Other,2
Al2N1Nb3,1.3,Al2 N1 Nb3,"[Element Al, Element N, Element Nb]","{'Al': 2.0, 'N': 1.0, 'Nb': 3.0}",Other,3
Al1N1,1.55,Al1 N1,"[Element Al, Element N]","{'Al': 1.0, 'N': 1.0}",Other,2
Al0.5Mo5S6Sn1,14.2,Al0.5 Mo5 S6 Sn1,"[Element Al, Element Mo, Element S, Element Sn]","{'Al': 0.5, 'Mo': 5.0, 'S': 6.0, 'Sn': 1.0}",Other,4
Al1Mo3,0.58,Al1 Mo3,"[Element Al, Element Mo]","{'Al': 1.0, 'Mo': 3.0}",Other,2
Al1Nb2.1V0.9,12.5,Al1 Nb2.1 V0.9,"[Element Al, Element Nb, Element V]","{'Al': 1.0, 'Nb': 2.1, 'V': 0.9}",Other,3
Al1Nb1Sn1,17.45,Al1 Nb1 Sn1,"[Element Al, Element Nb, Element Sn]","{'Al': 1.0, 'Nb': 1.0, 'Sn': 1.0}",Other,3
Al0.5Nb3Sn0.5,15.8,Al0.5 Nb3 Sn0.5,"[Element Al, Element Nb, Element Sn]","{'Al': 0.5, 'Nb': 3.0, 'Sn': 0.5}",Other,3
Al0.22Nb0.75Si0.3,19.2,Al0.22 Nb0.75 Si0.3,"[Element Al, Element Nb, Element Si]","{'Al': 0.22, 'Nb': 0.75, 'Si': 0.3}",Other,3
Al0.9Nb3Sb0.1,18.06,Al0.9 Nb3 Sb0.1,"[Element Al, Element Nb, Element Sb]","{'Al': 0.9, 'Nb': 3.0, 'Sb': 0.1}",Other,3
Al0.95Nb3Sb0.5,17.81,Al0.95 Nb3 Sb0.5,"[Element Al, Element Nb, Element Sb]","{'Al': 0.95, 'Nb': 3.0, 'Sb': 0.5}",Other,3
Al0.01Nb0.97O0.02,8.3,Al0.01 Nb0.97 O0.02,"[Element Al, Element Nb, Element O]","{'Al': 0.01, 'Nb': 0.97, 'O': 0.02}",Other,3
Al0.04Nb0.895O0.06,7.1,Al0.04 Nb0.895 O0.06,"[Element Al, Element Nb, Element O]","{'Al': 0.04, 'Nb': 0.895, 'O': 0.06}",Other,3
Al1Nb2Ni1,4.2,Al1 Nb2 Ni1,"[Element Al, Element Nb, Element Ni]","{'Al': 1.0, 'Nb': 2.0, 'Ni': 1.0}",Other,3
Al0.215Nb0.785,17.97,Al0.215 Nb0.785,"[Element Al, Element Nb]","{'Al': 0.215, 'Nb': 0.785}",Other,2
Al2Pt1,0.55,Al2 Pt1,"[Element Al, Element Pt]","{'Al': 2.0, 'Pt': 1.0}",Other,2
Al1Os1,0.39,Al1 Os1,"[Element Al, Element Os]","{'Al': 1.0, 'Os': 1.0}",Other,2
Al3Os1,5.9,Al3 Os1,"[Element Al, Element Os]","{'Al': 3.0, 'Os': 1.0}",Other,2
Al13Os4,5.5,Al13 Os4,"[Element Al, Element Os]","{'Al': 13.0, 'Os': 4.0}",Other,2
Al1Nb2.7V0.3,15.4,Al1 Nb2.7 V0.3,"[Element Al, Element Nb, Element V]","{'Al': 1.0, 'Nb': 2.7, 'V': 0.3}",Other,3
Al1Ta3,1.59,Al1 Ta3,"[Element Al, Element Ta]","{'Al': 1.0, 'Ta': 3.0}",Other,2
Al0.152Sn0.848,3.69,Al0.152 Sn0.848,"[Element Al, Element Sn]","{'Al': 0.152, 'Sn': 0.848}",Other,2
Al0.2Si0.8V3,15.7,Al0.2 Si0.8 V3,"[Element Al, Element Si, Element V]","{'Al': 0.2, 'Si': 0.8, 'V': 3.0}",Other,3
Al0.1Si0.9V3,16.1,Al0.1 Si0.9 V3,"[Element Al, Element Si, Element V]","{'Al': 0.1, 'Si': 0.9, 'V': 3.0}",Other,3
Al5Re24,3.35,Al5 Re24,"[Element Al, Element Re]","{'Al': 5.0, 'Re': 24.0}",Other,2
Al6Re1,1.85,Al6 Re1,"[Element Al, Element Re]","{'Al': 6.0, 'Re': 1.0}",Other,2
Al1V3,10.3,Al1 V3,"[Element Al, Element V]","{'Al': 1.0, 'V': 3.0}",Other,2
Al0.108V0.892,1.82,Al0.108 V0.892,"[Element Al, Element V]","{'Al': 0.108, 'V': 0.892}",Other,2
Al0.03Ti0.81V0.16,5.1,Al0.03 Ti0.81 V0.16,"[Element Al, Element Ti, Element V]","{'Al': 0.03, 'Ti': 0.81, 'V': 0.16}",Other,3
Al2Th3,2.6,Al2 Th3,"[Element Al, Element Th]","{'Al': 2.0, 'Th': 3.0}",Other,2
Al1Th2,0.09,Al1 Th2,"[Element Al, Element Th]","{'Al': 1.0, 'Th': 2.0}",Other,2
Al3Th1,0.75,Al3 Th1,"[Element Al, Element Th]","{'Al': 3.0, 'Th': 1.0}",Other,2
As1Bi1Pb1Sb1,9.0,As1 Bi1 Pb1 Sb1,"[Element As, Element Bi, Element Pb, Element Sb]","{'As': 1.0, 'Bi': 1.0, 'Pb': 1.0, 'Sb': 1.0}",Other,4
As1Bi1Pb1,9.0,As1 Bi1 Pb1,"[Element As, Element Bi, Element Pb]","{'As': 1.0, 'Bi': 1.0, 'Pb': 1.0}",Other,3
As0.15Bi0.15Nb3Sn0.7,18.07,As0.15 Bi0.15 Nb3 Sn0.7,"[Element As, Element Bi, Element Nb, Element Sn]","{'As': 0.15, 'Bi': 0.15, 'Nb': 3.0, 'Sn': 0.7}",Other,4
Am0.01Si2Th1,2.66,Am0.01 Si2 Th1,"[Element Am, Element Si, Element Th]","{'Am': 0.01, 'Si': 2.0, 'Th': 1.0}",Other,3
As1Ge1,3.5,As1 Ge1,"[Element As, Element Ge]","{'As': 1.0, 'Ge': 1.0}",Other,2
As0.15Ga0.15Nb3Sn0.7,18.01,As0.15 Ga0.15 Nb3 Sn0.7,"[Element As, Element Ga, Element Nb, Element Sn]","{'As': 0.15, 'Ga': 0.15, 'Nb': 3.0, 'Sn': 0.7}",Other,4
As1Pb1,8.4,As1 Pb1,"[Element As, Element Pb]","{'As': 1.0, 'Pb': 1.0}",Other,2
As0.15Nb3Sn0.7Tl0.15,17.98,As0.15 Nb3 Sn0.7 Tl0.15,"[Element As, Element Nb, Element Sn, Element Tl]","{'As': 0.15, 'Nb': 3.0, 'Sn': 0.7, 'Tl': 0.15}",Other,4
As0.15Nb3Sn0.85,17.98,As0.15 Nb3 Sn0.85,"[Element As, Element Nb, Element Sn]","{'As': 0.15, 'Nb': 3.0, 'Sn': 0.85}",Other,3
As0.15Nb3Pb0.15Sn0.7,18.05,As0.15 Nb3 Pb0.15 Sn0.7,"[Element As, Element Nb, Element Pb, Element Sn]","{'As': 0.15, 'Nb': 3.0, 'Pb': 0.15, 'Sn': 0.7}",Other,4
As2Mo1,0.41,As2 Mo1,"[Element As, Element Mo]","{'As': 2.0, 'Mo': 1.0}",Other,2
As0.15In0.15Nb3Sn0.7,17.99,As0.15 In0.15 Nb3 Sn0.7,"[Element As, Element In, Element Nb, Element Sn]","{'As': 0.15, 'In': 0.15, 'Nb': 3.0, 'Sn': 0.7}",Other,4
As1Sn1,4.1,As1 Sn1,"[Element As, Element Sn]","{'As': 1.0, 'Sn': 1.0}",Other,2
As1Rh1,0.58,As1 Rh1,"[Element As, Element Rh]","{'As': 1.0, 'Rh': 1.0}",Other,2
As2W1,0.9,As2 W1,"[Element As, Element W]","{'As': 2.0, 'W': 1.0}",Other,2
Au1Ga1,1.2,Au1 Ga1,"[Element Au, Element Ga]","{'Au': 1.0, 'Ga': 1.0}",Other,2
Au5Ca1,0.34,Au5 Ca1,"[Element Au, Element Ca]","{'Au': 5.0, 'Ca': 1.0}",Other,2
Au2Bi1,1.84,Au2 Bi1,"[Element Au, Element Bi]","{'Au': 2.0, 'Bi': 1.0}",Other,2
Au1Be1,0.91,Au1 Be1,"[Element Au, Element Be]","{'Au': 1.0, 'Be': 1.0}",Other,2
Au5Ba1,0.4,Au5 Ba1,"[Element Au, Element Ba]","{'Au': 5.0, 'Ba': 1.0}",Other,2
Au0.2B5Mo1.8,4.5,Au0.2 B5 Mo1.8,"[Element Au, Element B, Element Mo]","{'Au': 0.2, 'B': 5.0, 'Mo': 1.8}",Other,3
Au1In1,0.6,Au1 In1,"[Element Au, Element In]","{'Au': 1.0, 'In': 1.0}",Other,2
Au1In2,0.22,Au1 In2,"[Element Au, Element In]","{'Au': 1.0, 'In': 2.0}",Other,2
Au0.41Ge0.59,2.2,Au0.41 Ge0.59,"[Element Au, Element Ge]","{'Au': 0.41, 'Ge': 0.59}",Other,2
Au0.5Ge0.5,3.6,Au0.5 Ge0.5,"[Element Au, Element Ge]","{'Au': 0.5, 'Ge': 0.5}",Other,2
Au1Ge1,2.7,Au1 Ge1,"[Element Au, Element Ge]","{'Au': 1.0, 'Ge': 1.0}",Other,2
Au1Ga2,1.9,Au1 Ga2,"[Element Au, Element Ga]","{'Au': 1.0, 'Ga': 2.0}",Other,2
Au0.25Nb0.75,11.2,Au0.25 Nb0.75,"[Element Au, Element Nb]","{'Au': 0.25, 'Nb': 0.75}",Other,2
Au0.22La0.78,3.4,Au0.22 La0.78,"[Element Au, Element La]","{'Au': 0.22, 'La': 0.78}",Other,2
Au0.33La0.67,3.2,Au0.33 La0.67,"[Element Au, Element La]","{'Au': 0.33, 'La': 0.67}",Other,2
Au0.2Sn0.8,2.38,Au0.2 Sn0.8,"[Element Au, Element Sn]","{'Au': 0.2, 'Sn': 0.8}",Other,2
Au1Sn1,1.25,Au1 Sn1,"[Element Au, Element Sn]","{'Au': 1.0, 'Sn': 1.0}",Other,2
Au5Sn1,1.1,Au5 Sn1,"[Element Au, Element Sn]","{'Au': 5.0, 'Sn': 1.0}",Other,2
Au1Sb2,0.58,Au1 Sb2,"[Element Au, Element Sb]","{'Au': 1.0, 'Sb': 2.0}",Other,2
Au0.5Rh0.4Ti0.91,3.0,Au0.5 Rh0.4 Ti0.91,"[Element Au, Element Rh, Element Ti]","{'Au': 0.5, 'Rh': 0.4, 'Ti': 0.91}",Other,3
Au1Pb3,4.4,Au1 Pb3,"[Element Au, Element Pb]","{'Au': 1.0, 'Pb': 3.0}",Other,2
Au1Pb2,3.1,Au1 Pb2,"[Element Au, Element Pb]","{'Au': 1.0, 'Pb': 2.0}",Other,2
Au2Pb1,1.18,Au2 Pb1,"[Element Au, Element Pb]","{'Au': 2.0, 'Pb': 1.0}",Other,2
Au0.23V0.77,0.66,Au0.23 V0.77,"[Element Au, Element V]","{'Au': 0.23, 'V': 0.77}",Other,2
Au1Tl1,1.92,Au1 Tl1,"[Element Au, Element Tl]","{'Au': 1.0, 'Tl': 1.0}",Other,2
Au0.27Tl0.73,2.04,Au0.27 Tl0.73,"[Element Au, Element Tl]","{'Au': 0.27, 'Tl': 0.73}",Other,2
Au1Tl2,4.25,Au1 Tl2,"[Element Au, Element Tl]","{'Au': 1.0, 'Tl': 2.0}",Other,2
Au1Th2,3.65,Au1 Th2,"[Element Au, Element Th]","{'Au': 1.0, 'Th': 2.0}",Other,2
Au3Te5,1.62,Au3 Te5,"[Element Au, Element Te]","{'Au': 3.0, 'Te': 5.0}",Other,2
Au1Ta4.3,0.51,Au1 Ta4.3,"[Element Au, Element Ta]","{'Au': 1.0, 'Ta': 4.3}",Other,2
B1C1Mo2,7.1,B1 C1 Mo2,"[Element B, Element C, Element Mo]","{'B': 1.0, 'C': 1.0, 'Mo': 2.0}",Other,3
B5Hf0.2Nb1.8,3.6,B5 Hf0.2 Nb1.8,"[Element B, Element Hf, Element Nb]","{'B': 5.0, 'Hf': 0.2, 'Nb': 1.8}",Other,3
B5Hf0.2Mo1.8,8.4,B5 Hf0.2 Mo1.8,"[Element B, Element Hf, Element Mo]","{'B': 5.0, 'Hf': 0.2, 'Mo': 1.8}",Other,3
B1Hf1,3.1,B1 Hf1,"[Element B, Element Hf]","{'B': 1.0, 'Hf': 1.0}",Other,2
B5Mo1.7Nb0.3,8.3,B5 Mo1.7 Nb0.3,"[Element B, Element Mo, Element Nb]","{'B': 5.0, 'Mo': 1.7, 'Nb': 0.3}",Other,3
B5Mo0.2Nb1.8,4.3,B5 Mo0.2 Nb1.8,"[Element B, Element Mo, Element Nb]","{'B': 5.0, 'Mo': 0.2, 'Nb': 1.8}",Other,3
B2.5Mo1,7.45,B2.5 Mo1,"[Element B, Element Mo]","{'B': 2.5, 'Mo': 1.0}",Other,2
B12Lu1,0.48,B12 Lu1,"[Element B, Element Lu]","{'B': 12.0, 'Lu': 1.0}",Other,2
B2.5Nb1,6.4,B2.5 Nb1,"[Element B, Element Nb]","{'B': 2.5, 'Nb': 1.0}",Other,2
B5Mo1.7V0.3,5.5,B5 Mo1.7 V0.3,"[Element B, Element Mo, Element V]","{'B': 5.0, 'Mo': 1.7, 'V': 0.3}",Other,3
B5Mo1.7Ti0.3,7.1,B5 Mo1.7 Ti0.3,"[Element B, Element Mo, Element Ti]","{'B': 5.0, 'Mo': 1.7, 'Ti': 0.3}",Other,3
B5Mo1.7Ta0.3,7.0,B5 Mo1.7 Ta0.3,"[Element B, Element Mo, Element Ta]","{'B': 5.0, 'Mo': 1.7, 'Ta': 0.3}",Other,3
B1Mo1.75Ta0.25,3.05,B1 Mo1.75 Ta0.25,"[Element B, Element Mo, Element Ta]","{'B': 1.0, 'Mo': 1.75, 'Ta': 0.25}",Other,3
B1Mo1.5Ta0.5,1.81,B1 Mo1.5 Ta0.5,"[Element B, Element Mo, Element Ta]","{'B': 1.0, 'Mo': 1.5, 'Ta': 0.5}",Other,3
B5Mo1.8Sc0.2,8.8,B5 Mo1.8 Sc0.2,"[Element B, Element Mo, Element Sc]","{'B': 5.0, 'Mo': 1.8, 'Sc': 0.2}",Other,3
B3Mo6S8Sn1,15.0,B3 Mo6 S8 Sn1,"[Element B, Element Mo, Element S, Element Sn]","{'B': 3.0, 'Mo': 6.0, 'S': 8.0, 'Sn': 1.0}",Other,4
B5Nb1.8V0.2,2.5,B5 Nb1.8 V0.2,"[Element B, Element Nb, Element V]","{'B': 5.0, 'Nb': 1.8, 'V': 0.2}",Other,3
B5Nb1.9Ti0.1,4.0,B5 Nb1.9 Ti0.1,"[Element B, Element Nb, Element Ti]","{'B': 5.0, 'Nb': 1.9, 'Ti': 0.1}",Other,3
B5Nb1.8Th0.2,7.0,B5 Nb1.8 Th0.2,"[Element B, Element Nb, Element Th]","{'B': 5.0, 'Nb': 1.8, 'Th': 0.2}",Other,3
B5Nb1.9Sc0.1,6.6,B5 Nb1.9 Sc0.1,"[Element B, Element Nb, Element Sc]","{'B': 5.0, 'Nb': 1.9, 'Sc': 0.1}",Other,3
B5Nb1.8Ru0.2,6.0,B5 Nb1.8 Ru0.2,"[Element B, Element Nb, Element Ru]","{'B': 5.0, 'Nb': 1.8, 'Ru': 0.2}",Other,3
B1Nb1,8.25,B1 Nb1,"[Element B, Element Nb]","{'B': 1.0, 'Nb': 1.0}",Other,2
B3Ru7,2.58,B3 Ru7,"[Element B, Element Ru]","{'B': 3.0, 'Ru': 7.0}",Other,2
B1Re2,4.6,B1 Re2,"[Element B, Element Re]","{'B': 1.0, 'Re': 2.0}",Other,2
B1Ta1,4.0,B1 Ta1,"[Element B, Element Ta]","{'B': 1.0, 'Ta': 1.0}",Other,2
B12Sc1,0.39,B12 Sc1,"[Element B, Element Sc]","{'B': 12.0, 'Sc': 1.0}",Other,2
B6Th1,0.74,B6 Th1,"[Element B, Element Th]","{'B': 6.0, 'Th': 1.0}",Other,2
B1Ta1.5W0.5,0.25,B1 Ta1.5 W0.5,"[Element B, Element Ta, Element W]","{'B': 1.0, 'Ta': 1.5, 'W': 0.5}",Other,3
Ba0.1Pb3Sr0.9,1.75,Ba0.1 Pb3 Sr0.9,"[Element Ba, Element Pb, Element Sr]","{'Ba': 0.1, 'Pb': 3.0, 'Sr': 0.9}",Other,3
Ba0.14O3W1,2.2,Ba0.14 O3 W1,"[Element Ba, Element O, Element W]","{'Ba': 0.14, 'O': 3.0, 'W': 1.0}",Other,3
Ba0.13O3W1,1.9,Ba0.13 O3 W1,"[Element Ba, Element O, Element W]","{'Ba': 0.13, 'O': 3.0, 'W': 1.0}",Other,3
Ba1Hg1,2.32,Ba1 Hg1,"[Element Ba, Element Hg]","{'Ba': 1.0, 'Hg': 1.0}",Other,2
Be0.92Cu0.08,0.84,Be0.92 Cu0.08,"[Element Be, Element Cu]","{'Be': 0.92, 'Cu': 0.08}",Other,2
Ba1Rh2,6.0,Ba1 Rh2,"[Element Ba, Element Rh]","{'Ba': 1.0, 'Rh': 2.0}",Other,2
Be5Ga1,5.8,Be5 Ga1,"[Element Be, Element Ga]","{'Be': 5.0, 'Ga': 1.0}",Other,2
Be6Ga1,6.0,Be6 Ga1,"[Element Be, Element Ga]","{'Be': 6.0, 'Ga': 1.0}",Other,2
Be8Ga1,5.7,Be8 Ga1,"[Element Be, Element Ga]","{'Be': 8.0, 'Ga': 1.0}",Other,2
Be13Ga1,5.6,Be13 Ga1,"[Element Be, Element Ga]","{'Be': 13.0, 'Ga': 1.0}",Other,2
Be22Ga1,5.7,Be22 Ga1,"[Element Be, Element Ga]","{'Be': 22.0, 'Ga': 1.0}",Other,2
Be0.858Cu0.142,0.56,Be0.858 Cu0.142,"[Element Be, Element Cu]","{'Be': 0.858, 'Cu': 0.142}",Other,2
Be0.89Cu0.11,1.11,Be0.89 Cu0.11,"[Element Be, Element Cu]","{'Be': 0.89, 'Cu': 0.11}",Other,2
Be12Mg1Re1,10.1,Be12 Mg1 Re1,"[Element Be, Element Mg, Element Re]","{'Be': 12.0, 'Mg': 1.0, 'Re': 1.0}",Other,3
Be5Ir1,1.5,Be5 Ir1,"[Element Be, Element Ir]","{'Be': 5.0, 'Ir': 1.0}",Other,2
Be2Ga1,6.3,Be2 Ga1,"[Element Be, Element Ga]","{'Be': 2.0, 'Ga': 1.0}",Other,2
Be3Ga1,6.7,Be3 Ga1,"[Element Be, Element Ga]","{'Be': 3.0, 'Ga': 1.0}",Other,2
Be22Mo0.6Re0.4,8.3,Be22 Mo0.6 Re0.4,"[Element Be, Element Mo, Element Re]","{'Be': 22.0, 'Mo': 0.6, 'Re': 0.4}",Other,3
Be22Mo0.3Re0.7,8.6,Be22 Mo0.3 Re0.7,"[Element Be, Element Mo, Element Re]","{'Be': 22.0, 'Mo': 0.3, 'Re': 0.7}",Other,3
Be22Mo0.4Re0.6,8.6,Be22 Mo0.4 Re0.6,"[Element Be, Element Mo, Element Re]","{'Be': 22.0, 'Mo': 0.4, 'Re': 0.6}",Other,3
Be0.96Ni0.04,0.76,Be0.96 Ni0.04,"[Element Be, Element Ni]","{'Be': 0.96, 'Ni': 0.04}",Other,2
Be0.934Ni0.066,0.88,Be0.934 Ni0.066,"[Element Be, Element Ni]","{'Be': 0.934, 'Ni': 0.066}",Other,2
Be0.9Ni0.1,0.58,Be0.9 Ni0.1,"[Element Be, Element Ni]","{'Be': 0.9, 'Ni': 0.1}",Other,2
Be21Ni5,0.72,Be21 Ni5,"[Element Be, Element Ni]","{'Be': 21.0, 'Ni': 5.0}",Other,2
Be2Nb1.5Ta1.5,1.7,Be2 Nb1.5 Ta1.5,"[Element Be, Element Nb, Element Ta]","{'Be': 2.0, 'Nb': 1.5, 'Ta': 1.5}",Other,3
Be2Nb3,2.3,Be2 Nb3,"[Element Be, Element Nb]","{'Be': 2.0, 'Nb': 3.0}",Other,2
Be2Nb1,2.15,Be2 Nb1,"[Element Be, Element Nb]","{'Be': 2.0, 'Nb': 1.0}",Other,2
Be17Nb2,1.47,Be17 Nb2,"[Element Be, Element Nb]","{'Be': 17.0, 'Nb': 2.0}",Other,2
Be0.86Pb0.14,9.7,Be0.86 Pb0.14,"[Element Be, Element Pb]","{'Be': 0.86, 'Pb': 0.14}",Other,2
Be22Os0.005Re1,9.8,Be22 Os0.005 Re1,"[Element Be, Element Os, Element Re]","{'Be': 22.0, 'Os': 0.005, 'Re': 1.0}",Other,3
Be0.8Os0.2,8.6,Be0.8 Os0.2,"[Element Be, Element Os]","{'Be': 0.8, 'Os': 0.2}",Other,2
Be0.95Os0.05,0.57,Be0.95 Os0.05,"[Element Be, Element Os]","{'Be': 0.95, 'Os': 0.05}",Other,2
Be2Os1,3.07,Be2 Os1,"[Element Be, Element Os]","{'Be': 2.0, 'Os': 1.0}",Other,2
Be5Os1,9.2,Be5 Os1,"[Element Be, Element Os]","{'Be': 5.0, 'Os': 1.0}",Other,2
Be22Re0.95W0.05,9.45,Be22 Re0.95 W0.05,"[Element Be, Element Re, Element W]","{'Be': 22.0, 'Re': 0.95, 'W': 0.05}",Other,3
Be22Re0.95Os0.05,9.2,Be22 Re0.95 Os0.05,"[Element Be, Element Re, Element Os]","{'Be': 22.0, 'Re': 0.95, 'Os': 0.05}",Other,3
Be0.96Re0.04,9.5,Be0.96 Re0.04,"[Element Be, Element Re]","{'Be': 0.96, 'Re': 0.04}",Other,2
Be0.957Re0.043,9.67,Be0.957 Re0.043,"[Element Be, Element Re]","{'Be': 0.957, 'Re': 0.043}",Other,2
Be0.98Re0.02,9.75,Be0.98 Re0.02,"[Element Be, Element Re]","{'Be': 0.98, 'Re': 0.02}",Other,2
Be5Pt1,2.3,Be5 Pt1,"[Element Be, Element Pt]","{'Be': 5.0, 'Pt': 1.0}",Other,2
Be2Ru1,1.35,Be2 Ru1,"[Element Be, Element Ru]","{'Be': 2.0, 'Ru': 1.0}",Other,2
Be13Ru1,1.3,Be13 Ru1,"[Element Be, Element Ru]","{'Be': 13.0, 'Ru': 1.0}",Other,2
Be2Rh1,1.37,Be2 Rh1,"[Element Be, Element Rh]","{'Be': 2.0, 'Rh': 1.0}",Other,2
Be2Ta3,1.0,Be2 Ta3,"[Element Be, Element Ta]","{'Be': 2.0, 'Ta': 3.0}",Other,2
Be0.62Si0.38,9.0,Be0.62 Si0.38,"[Element Be, Element Si]","{'Be': 0.62, 'Si': 0.38}",Other,2
Be0.95Ru0.05,1.47,Be0.95 Ru0.05,"[Element Be, Element Ru]","{'Be': 0.95, 'Ru': 0.05}",Other,2
Bi1Co1,0.49,Bi1 Co1,"[Element Bi, Element Co]","{'Bi': 1.0, 'Co': 1.0}",Other,2
Bi0.15Ge0.15Nb3Sn0.7,17.75,Bi0.15 Ge0.15 Nb3 Sn0.7,"[Element Bi, Element Ge, Element Nb, Element Sn]","{'Bi': 0.15, 'Ge': 0.15, 'Nb': 3.0, 'Sn': 0.7}",Other,4
Bi0.15Ga0.15Nb3Sn0.7,18.04,Bi0.15 Ga0.15 Nb3 Sn0.7,"[Element Bi, Element Ga, Element Nb, Element Sn]","{'Bi': 0.15, 'Ga': 0.15, 'Nb': 3.0, 'Sn': 0.7}",Other,4
Bi1Cu1,1.4,Bi1 Cu1,"[Element Bi, Element Cu]","{'Bi': 1.0, 'Cu': 1.0}",Other,2
Bi2Cs1,4.75,Bi2 Cs1,"[Element Bi, Element Cs]","{'Bi': 2.0, 'Cs': 1.0}",Other,2
Bi1In1,7.95,Bi1 In1,"[Element Bi, Element In]","{'Bi': 1.0, 'In': 1.0}",Other,2
Bi0.015In0.985,3.725,Bi0.015 In0.985,"[Element Bi, Element In]","{'Bi': 0.015, 'In': 0.985}",Other,2
Bi0.019In0.981,3.86,Bi0.019 In0.981,"[Element Bi, Element In]","{'Bi': 0.019, 'In': 0.981}",Other,2
Bi0.02In0.98,3.845,Bi0.02 In0.98,"[Element Bi, Element In]","{'Bi': 0.02, 'In': 0.98}",Other,2
Bi0.025In0.975,4.07,Bi0.025 In0.975,"[Element Bi, Element In]","{'Bi': 0.025, 'In': 0.975}",Other,2
Bi0.05In0.95,4.65,Bi0.05 In0.95,"[Element Bi, Element In]","{'Bi': 0.05, 'In': 0.95}",Other,2
Bi0.1In0.9,5.05,Bi0.1 In0.9,"[Element Bi, Element In]","{'Bi': 0.1, 'In': 0.9}",Other,2
Bi0.343In0.657,5.55,Bi0.343 In0.657,"[Element Bi, Element In]","{'Bi': 0.343, 'In': 0.657}",Other,2
Bi1In2,5.87,Bi1 In2,"[Element Bi, Element In]","{'Bi': 1.0, 'In': 2.0}",Other,2
Bi1Li1,2.455,Bi1 Li1,"[Element Bi, Element Li]","{'Bi': 1.0, 'Li': 1.0}",Other,2
Bi2K1,3.57,Bi2 K1,"[Element Bi, Element K]","{'Bi': 2.0, 'K': 1.0}",Other,2
Bi2Ir1,3.96,Bi2 Ir1,"[Element Bi, Element Ir]","{'Bi': 2.0, 'Ir': 1.0}",Other,2
Bi0.15In0.15Nb3Sn0.7,18.01,Bi0.15 In0.15 Nb3 Sn0.7,"[Element Bi, Element In, Element Nb, Element Sn]","{'Bi': 0.15, 'In': 0.15, 'Nb': 3.0, 'Sn': 0.7}",Other,4
Bi1Ni1,4.25,Bi1 Ni1,"[Element Bi, Element Ni]","{'Bi': 1.0, 'Ni': 1.0}",Other,2
Bi0.15Nb3Sn0.7Tl0.15,18.12,Bi0.15 Nb3 Sn0.7 Tl0.15,"[Element Bi, Element Nb, Element Sn, Element Tl]","{'Bi': 0.15, 'Nb': 3.0, 'Sn': 0.7, 'Tl': 0.15}",Other,4
Bi0.15Nb3Sn0.85,18.23,Bi0.15 Nb3 Sn0.85,"[Element Bi, Element Nb, Element Sn]","{'Bi': 0.15, 'Nb': 3.0, 'Sn': 0.85}",Other,3
Bi1Nb3,4.5,Bi1 Nb3,"[Element Bi, Element Nb]","{'Bi': 1.0, 'Nb': 3.0}",Other,2
Bi1Na1,2.25,Bi1 Na1,"[Element Bi, Element Na]","{'Bi': 1.0, 'Na': 1.0}",Other,2
Bi3Mo1,3.7,Bi3 Mo1,"[Element Bi, Element Mo]","{'Bi': 3.0, 'Mo': 1.0}",Other,2
Bi0.575Pb0.425,8.03,Bi0.575 Pb0.425,"[Element Bi, Element Pb]","{'Bi': 0.575, 'Pb': 0.425}",Other,2
Bi0.625Pb0.375,8.05,Bi0.625 Pb0.375,"[Element Bi, Element Pb]","{'Bi': 0.625, 'Pb': 0.375}",Other,2
Bi0.07Pb0.93,7.7,Bi0.07 Pb0.93,"[Element Bi, Element Pb]","{'Bi': 0.07, 'Pb': 0.93}",Other,2
Bi0.1Pb0.9,7.95,Bi0.1 Pb0.9,"[Element Bi, Element Pb]","{'Bi': 0.1, 'Pb': 0.9}",Other,2
Bi0.2Pb0.8,8.15,Bi0.2 Pb0.8,"[Element Bi, Element Pb]","{'Bi': 0.2, 'Pb': 0.8}",Other,2
Bi0.23Pb0.77,7.8,Bi0.23 Pb0.77,"[Element Bi, Element Pb]","{'Bi': 0.23, 'Pb': 0.77}",Other,2
Bi0.26Pb0.74,8.3,Bi0.26 Pb0.74,"[Element Bi, Element Pb]","{'Bi': 0.26, 'Pb': 0.74}",Other,2
Bi0.3Pb0.7,8.63,Bi0.3 Pb0.7,"[Element Bi, Element Pb]","{'Bi': 0.3, 'Pb': 0.7}",Other,2
Bi0.35Pb0.65,8.7,Bi0.35 Pb0.65,"[Element Bi, Element Pb]","{'Bi': 0.35, 'Pb': 0.65}",Other,2
Bi0.45Pb0.55,8.4,Bi0.45 Pb0.55,"[Element Bi, Element Pb]","{'Bi': 0.45, 'Pb': 0.55}",Other,2
Bi0.5Pb0.5,8.4,Bi0.5 Pb0.5,"[Element Bi, Element Pb]","{'Bi': 0.5, 'Pb': 0.5}",Other,2
Bi0.65Pb0.35,8.8,Bi0.65 Pb0.35,"[Element Bi, Element Pb]","{'Bi': 0.65, 'Pb': 0.35}",Other,2
Bi0.5Pb0.25Sn0.25,8.5,Bi0.5 Pb0.25 Sn0.25,"[Element Bi, Element Pb, Element Sn]","{'Bi': 0.5, 'Pb': 0.25, 'Sn': 0.25}",Other,3
Bi0.525Pb0.32Sn0.155,8.68,Bi0.525 Pb0.32 Sn0.155,"[Element Bi, Element Pb, Element Sn]","{'Bi': 0.525, 'Pb': 0.32, 'Sn': 0.155}",Other,3
Bi1Pb1Sb1,8.9,Bi1 Pb1 Sb1,"[Element Bi, Element Pb, Element Sb]","{'Bi': 1.0, 'Pb': 1.0, 'Sb': 1.0}",Other,3
Bi0.25Pb0.75,6.9,Bi0.25 Pb0.75,"[Element Bi, Element Pb]","{'Bi': 0.25, 'Pb': 0.75}",Other,2
Bi1Re2,2.2,Bi1 Re2,"[Element Bi, Element Re]","{'Bi': 1.0, 'Re': 2.0}",Other,2
Bi2Rb1,4.25,Bi2 Rb1,"[Element Bi, Element Rb]","{'Bi': 2.0, 'Rb': 1.0}",Other,2
Bi1Pt1Te1,1.15,Bi1 Pt1 Te1,"[Element Bi, Element Pt, Element Te]","{'Bi': 1.0, 'Pt': 1.0, 'Te': 1.0}",Other,3
Bi1Pt1Se1,1.45,Bi1 Pt1 Se1,"[Element Bi, Element Pt, Element Se]","{'Bi': 1.0, 'Pt': 1.0, 'Se': 1.0}",Other,3
Bi2Pt1,0.155,Bi2 Pt1,"[Element Bi, Element Pt]","{'Bi': 2.0, 'Pt': 1.0}",Other,2
Bi1Ru1,5.7,Bi1 Ru1,"[Element Bi, Element Ru]","{'Bi': 1.0, 'Ru': 1.0}",Other,2
Bi0.8Rh0.2,2.7,Bi0.8 Rh0.2,"[Element Bi, Element Rh]","{'Bi': 0.8, 'Rh': 0.2}",Other,2
Bi3Rh1,3.2,Bi3 Rh1,"[Element Bi, Element Rh]","{'Bi': 3.0, 'Rh': 1.0}",Other,2
Bi1Rh1,2.06,Bi1 Rh1,"[Element Bi, Element Rh]","{'Bi': 1.0, 'Rh': 1.0}",Other,2
Bi3Te1,1.0,Bi3 Te1,"[Element Bi, Element Te]","{'Bi': 3.0, 'Te': 1.0}",Other,2