chemical_formula,Tc,composition,elements,stoichiometry,Category,num_elements
Sn0.8075Ge0.1425In0.05Te1,1.09,Sn0.8075 Ge0.1425 In0.05 Te1,"[Element Sn, Element Ge, Element In, Element Te]","{'Sn': 0.8075, 'Ge': 0.1425, 'In': 0.05, 'Te': 1.0}",Other,4
Sn0.76Ge0.19In0.05Te1,0.68,Sn0.76 Ge0.19 In0.05 Te1,"[Element Sn, Element Ge, Element In, Element Te]","{'Sn': 0.76, 'Ge': 0.19, 'In': 0.05, 'Te': 1.0}",Other,4
Sn0.84In0.16Te1,2.48,Sn0.84 In0.16 Te1,"[Element Sn, Element In, Element Te]","{'Sn': 0.84, 'In': 0.16, 'Te': 1.0}",Other,3
Sn0.798Ge0.042In0.16Te1,2.36,Sn0.798 Ge0.042 In0.16 Te1,"[Element Sn, Element Ge, Element In, Element Te]","{'Sn': 0.798, 'Ge': 0.042, 'In': 0.16, 'Te': 1.0}",Other,4
Sn0.756Ge0.084In0.16Te1,2.32,Sn0.756 Ge0.084 In0.16 Te1,"[Element Sn, Element Ge, Element In, Element Te]","{'Sn': 0.756, 'Ge': 0.084, 'In': 0.16, 'Te': 1.0}",Other,4
Sn0.714Ge0.126In0.16Te1,2.23,Sn0.714 Ge0.126 In0.16 Te1,"[Element Sn, Element Ge, Element In, Element Te]","{'Sn': 0.714, 'Ge': 0.126, 'In': 0.16, 'Te': 1.0}",Other,4
Sn0.672Ge0.168In0.16Te1,1.93,Sn0.672 Ge0.168 In0.16 Te1,"[Element Sn, Element Ge, Element In, Element Te]","{'Sn': 0.672, 'Ge': 0.168, 'In': 0.16, 'Te': 1.0}",Other,4
Sn0.63Ge0.21In0.16Te1,1.87,Sn0.63 Ge0.21 In0.16 Te1,"[Element Sn, Element Ge, Element In, Element Te]","{'Sn': 0.63, 'Ge': 0.21, 'In': 0.16, 'Te': 1.0}",Other,4
Sn0.588Ge0.252In0.16Te1,1.42,Sn0.588 Ge0.252 In0.16 Te1,"[Element Sn, Element Ge, Element In, Element Te]","{'Sn': 0.588, 'Ge': 0.252, 'In': 0.16, 'Te': 1.0}",Other,4
Sn0.504Ge0.336In0.16Te1,0.42,Sn0.504 Ge0.336 In0.16 Te1,"[Element Sn, Element Ge, Element In, Element Te]","{'Sn': 0.504, 'Ge': 0.336, 'In': 0.16, 'Te': 1.0}",Other,4
Cu1.5Rh1.5S4,4.5,Cu1.5 Rh1.5 S4,"[Element Cu, Element Rh, Element S]","{'Cu': 1.5, 'Rh': 1.5, 'S': 4.0}",Other,3
La2Rh3Sn5,1.85,La2 Rh3 Sn5,"[Element La, Element Rh, Element Sn]","{'La': 2.0, 'Rh': 3.0, 'Sn': 5.0}",Other,3
Tm2Rh3Sn5,1.8,Tm2 Rh3 Sn5,"[Element Tm, Element Rh, Element Sn]","{'Tm': 2.0, 'Rh': 3.0, 'Sn': 5.0}",Other,3
Sc2Fe3Si5,4.52,Sc2 Fe3 Si5,"[Element Sc, Element Fe, Element Si]","{'Sc': 2.0, 'Fe': 3.0, 'Si': 5.0}",Fe-based,3
Lu2Fe3Si5,6.1,Lu2 Fe3 Si5,"[Element Lu, Element Fe, Element Si]","{'Lu': 2.0, 'Fe': 3.0, 'Si': 5.0}",Fe-based,3
La7Ru3,1.92,La7 Ru3,"[Element La, Element Ru]","{'La': 7.0, 'Ru': 3.0}",Other,2
Na0.05W1O3,91.0,Na0.05 W1 O3,"[Element Na, Element W, Element O]","{'Na': 0.05, 'W': 1.0, 'O': 3.0}",Other,3
Tm2Fe3Si5,3.13,Tm2 Fe3 Si5,"[Element Tm, Element Fe, Element Si]","{'Tm': 2.0, 'Fe': 3.0, 'Si': 5.0}",Fe-based,3
Ho0.8La0.2Ni2B2C1,1.3,Ho0.8 La0.2 Ni2 B2 C1,"[Element Ho, Element La, Element Ni, Element B, Element C]","{'Ho': 0.8, 'La': 0.2, 'Ni': 2.0, 'B': 2.0, 'C': 1.0}",Other,5
Ho0.9La0.1Ni2B2C1,2.25,Ho0.9 La0.1 Ni2 B2 C1,"[Element Ho, Element La, Element Ni, Element B, Element C]","{'Ho': 0.9, 'La': 0.1, 'Ni': 2.0, 'B': 2.0, 'C': 1.0}",Other,5
Ho0.93La0.07Ni2B2C1,3.0,Ho0.93 La0.07 Ni2 B2 C1,"[Element Ho, Element La, Element Ni, Element B, Element C]","{'Ho': 0.93, 'La': 0.07, 'Ni': 2.0, 'B': 2.0, 'C': 1.0}",Other,5
Ho0.95La0.05Ni2B2C1,6.62,Ho0.95 La0.05 Ni2 B2 C1,"[Element Ho, Element La, Element Ni, Element B, Element C]","{'Ho': 0.95, 'La': 0.05, 'Ni': 2.0, 'B': 2.0, 'C': 1.0}",Other,5
Ho0.97La0.03Ni2B2C1,7.44,Ho0.97 La0.03 Ni2 B2 C1,"[Element Ho, Element La, Element Ni, Element B, Element C]","{'Ho': 0.97, 'La': 0.03, 'Ni': 2.0, 'B': 2.0, 'C': 1.0}",Other,5
La3Ni1,2.4,La3 Ni1,"[Element La, Element Ni]","{'La': 3.0, 'Ni': 1.0}",Other,2
Al0.24Nb0.76,18.7,Al0.24 Nb0.76,"[Element Al, Element Nb]","{'Al': 0.24, 'Nb': 0.76}",Other,2
Mo6Se6Br2,6.7,Mo6 Se6 Br2,"[Element Mo, Element Se, Element Br]","{'Mo': 6.0, 'Se': 6.0, 'Br': 2.0}",Other,3
Cu1Mo6Se8,5.9,Cu1 Mo6 Se8,"[Element Cu, Element Mo, Element Se]","{'Cu': 1.0, 'Mo': 6.0, 'Se': 8.0}",Other,3
La1Mo6Se8,11.6,La1 Mo6 Se8,"[Element La, Element Mo, Element Se]","{'La': 1.0, 'Mo': 6.0, 'Se': 8.0}",Other,3
Sn1Mo6Se8,3.4,Sn1 Mo6 Se8,"[Element Sn, Element Mo, Element Se]","{'Sn': 1.0, 'Mo': 6.0, 'Se': 8.0}",Other,3
Pb1Mo6Se8,4.0,Pb1 Mo6 Se8,"[Element Pb, Element Mo, Element Se]","{'Pb': 1.0, 'Mo': 6.0, 'Se': 8.0}",Other,3
Ag1Mo6S8,7.7,Ag1 Mo6 S8,"[Element Ag, Element Mo, Element S]","{'Ag': 1.0, 'Mo': 6.0, 'S': 8.0}",Other,3
La1Mo6S8,6.8,La1 Mo6 S8,"[Element La, Element Mo, Element S]","{'La': 1.0, 'Mo': 6.0, 'S': 8.0}",Other,3
Mo6S8,1.8,Mo6 S8,"[Element Mo, Element S]","{'Mo': 6.0, 'S': 8.0}",Other,2
Mo6S6Br2,13.0,Mo6 S6 Br2,"[Element Mo, Element S, Element Br]","{'Mo': 6.0, 'S': 6.0, 'Br': 2.0}",Other,3
Mo6S6I2,13.0,Mo6 S6 I2,"[Element Mo, Element S, Element I]","{'Mo': 6.0, 'S': 6.0, 'I': 2.0}",Other,3
Cu1.8Mo6S8,10.7,Cu1.8 Mo6 S8,"[Element Cu, Element Mo, Element S]","{'Cu': 1.8, 'Mo': 6.0, 'S': 8.0}",Other,3
Al0.245Nb0.725,18.4,Al0.245 Nb0.725,"[Element Al, Element Nb]","{'Al': 0.245, 'Nb': 0.725}",Other,2
Nb0.747Al0.239Si0.014,18.0,Nb0.747 Al0.239 Si0.014,"[Element Nb, Element Al, Element Si]","{'Nb': 0.747, 'Al': 0.239, 'Si': 0.014}",Other,3
Nb0.758Al0.174Ge0.069,19.7,Nb0.758 Al0.174 Ge0.069,"[Element Nb, Element Al, Element Ge]","{'Nb': 0.758, 'Al': 0.174, 'Ge': 0.069}",Other,3
Nb3Al0.75Ga0.3,19.1,Nb3 Al0.75 Ga0.3,"[Element Nb, Element Al, Element Ga]","{'Nb': 3.0, 'Al': 0.75, 'Ga': 0.3}",Other,3
Nb2.985Hf0.015Al1,18.0,Nb2.985 Hf0.015 Al1,"[Element Nb, Element Hf, Element Al]","{'Nb': 2.985, 'Hf': 0.015, 'Al': 1.0}",Other,3
Nb2.919Hf0.081Al1,16.5,Nb2.919 Hf0.081 Al1,"[Element Nb, Element Hf, Element Al]","{'Nb': 2.919, 'Hf': 0.081, 'Al': 1.0}",Other,3
Nb2.85Hf0.15Al1,14.4,Nb2.85 Hf0.15 Al1,"[Element Nb, Element Hf, Element Al]","{'Nb': 2.85, 'Hf': 0.15, 'Al': 1.0}",Other,3
Nb2.976Ti0.024Al1,17.7,Nb2.976 Ti0.024 Al1,"[Element Nb, Element Ti, Element Al]","{'Nb': 2.976, 'Ti': 0.024, 'Al': 1.0}",Other,3
Nb2.9175Ti0.0825Al1,16.0,Nb2.9175 Ti0.0825 Al1,"[Element Nb, Element Ti, Element Al]","{'Nb': 2.9175, 'Ti': 0.0825, 'Al': 1.0}",Other,3
Nb2.88Ti0.12Al1,15.0,Nb2.88 Ti0.12 Al1,"[Element Nb, Element Ti, Element Al]","{'Nb': 2.88, 'Ti': 0.12, 'Al': 1.0}",Other,3
Nb2.778Ti0.222Al1,13.0,Nb2.778 Ti0.222 Al1,"[Element Nb, Element Ti, Element Al]","{'Nb': 2.778, 'Ti': 0.222, 'Al': 1.0}",Other,3
Nb2.73Ti0.27Al1,11.5,Nb2.73 Ti0.27 Al1,"[Element Nb, Element Ti, Element Al]","{'Nb': 2.73, 'Ti': 0.27, 'Al': 1.0}",Other,3
Nb2.58Ti0.42Al1,9.0,Nb2.58 Ti0.42 Al1,"[Element Nb, Element Ti, Element Al]","{'Nb': 2.58, 'Ti': 0.42, 'Al': 1.0}",Other,3
Nb2.97W0.03Al1,18.0,Nb2.97 W0.03 Al1,"[Element Nb, Element W, Element Al]","{'Nb': 2.97, 'W': 0.03, 'Al': 1.0}",Other,3
Nb2.94W0.06Al1,17.2,Nb2.94 W0.06 Al1,"[Element Nb, Element W, Element Al]","{'Nb': 2.94, 'W': 0.06, 'Al': 1.0}",Other,3
Nb2.895W0.105Al1,16.0,Nb2.895 W0.105 Al1,"[Element Nb, Element W, Element Al]","{'Nb': 2.895, 'W': 0.105, 'Al': 1.0}",Other,3
Nb2.85W0.15Al1,15.2,Nb2.85 W0.15 Al1,"[Element Nb, Element W, Element Al]","{'Nb': 2.85, 'W': 0.15, 'Al': 1.0}",Other,3
Nb2.775Mo0.225Al1,13.8,Nb2.775 Mo0.225 Al1,"[Element Nb, Element Mo, Element Al]","{'Nb': 2.775, 'Mo': 0.225, 'Al': 1.0}",Other,3
Nb2.94Ta0.06Al1,17.7,Nb2.94 Ta0.06 Al1,"[Element Nb, Element Ta, Element Al]","{'Nb': 2.94, 'Ta': 0.06, 'Al': 1.0}",Other,3
Nb2.85Ta0.15Al1,16.8,Nb2.85 Ta0.15 Al1,"[Element Nb, Element Ta, Element Al]","{'Nb': 2.85, 'Ta': 0.15, 'Al': 1.0}",Other,3
Nb2.739Ta0.261Al1,15.4,Nb2.739 Ta0.261 Al1,"[Element Nb, Element Ta, Element Al]","{'Nb': 2.739, 'Ta': 0.261, 'Al': 1.0}",Other,3
Nb2.64Ta0.36Al1,14.5,Nb2.64 Ta0.36 Al1,"[Element Nb, Element Ta, Element Al]","{'Nb': 2.64, 'Ta': 0.36, 'Al': 1.0}",Other,3
Nb2.859V0.141Al1,17.2,Nb2.859 V0.141 Al1,"[Element Nb, Element V, Element Al]","{'Nb': 2.859, 'V': 0.141, 'Al': 1.0}",Other,3
Nb2.706V0.294Al1,15.6,Nb2.706 V0.294 Al1,"[Element Nb, Element V, Element Al]","{'Nb': 2.706, 'V': 0.294, 'Al': 1.0}",Other,3
Nb2.55V0.45Al1,14.0,Nb2.55 V0.45 Al1,"[Element Nb, Element V, Element Al]","{'Nb': 2.55, 'V': 0.45, 'Al': 1.0}",Other,3
Nb3Al0.98Se0.02,18.4,Nb3 Al0.98 Se0.02,"[Element Nb, Element Al, Element Se]","{'Nb': 3.0, 'Al': 0.98, 'Se': 0.02}",Other,3
Nb3Al0.967Se0.033,18.1,Nb3 Al0.967 Se0.033,"[Element Nb, Element Al, Element Se]","{'Nb': 3.0, 'Al': 0.967, 'Se': 0.033}",Other,3
Nb3Al0.952Se0.048,18.0,Nb3 Al0.952 Se0.048,"[Element Nb, Element Al, Element Se]","{'Nb': 3.0, 'Al': 0.952, 'Se': 0.048}",Other,3
Nb3Al0.94Se0.06,17.8,Nb3 Al0.94 Se0.06,"[Element Nb, Element Al, Element Se]","{'Nb': 3.0, 'Al': 0.94, 'Se': 0.06}",Other,3
Nb3Al0.924Se0.076,17.6,Nb3 Al0.924 Se0.076,"[Element Nb, Element Al, Element Se]","{'Nb': 3.0, 'Al': 0.924, 'Se': 0.076}",Other,3
Nb3Al0.9Se0.1,17.6,Nb3 Al0.9 Se0.1,"[Element Nb, Element Al, Element Se]","{'Nb': 3.0, 'Al': 0.9, 'Se': 0.1}",Other,3
Nb3Al0.985Si0.015,18.6,Nb3 Al0.985 Si0.015,"[Element Nb, Element Al, Element Si]","{'Nb': 3.0, 'Al': 0.985, 'Si': 0.015}",Other,3
Nb3Al0.975Si0.025,18.5,Nb3 Al0.975 Si0.025,"[Element Nb, Element Al, Element Si]","{'Nb': 3.0, 'Al': 0.975, 'Si': 0.025}",Other,3
Nb3Al0.964Si0.036,18.4,Nb3 Al0.964 Si0.036,"[Element Nb, Element Al, Element Si]","{'Nb': 3.0, 'Al': 0.964, 'Si': 0.036}",Other,3
Nb3Al0.956Si0.044,18.5,Nb3 Al0.956 Si0.044,"[Element Nb, Element Al, Element Si]","{'Nb': 3.0, 'Al': 0.956, 'Si': 0.044}",Other,3
Nb3Al0.945Si0.055,18.4,Nb3 Al0.945 Si0.055,"[Element Nb, Element Al, Element Si]","{'Nb': 3.0, 'Al': 0.945, 'Si': 0.055}",Other,3
Nb3Al0.935Si0.065,18.4,Nb3 Al0.935 Si0.065,"[Element Nb, Element Al, Element Si]","{'Nb': 3.0, 'Al': 0.935, 'Si': 0.065}",Other,3
Nb3Al0.983Ga0.017,18.8,Nb3 Al0.983 Ga0.017,"[Element Nb, Element Al, Element Ga]","{'Nb': 3.0, 'Al': 0.983, 'Ga': 0.017}",Other,3
Nb3Al0.967Ga0.033,19.0,Nb3 Al0.967 Ga0.033,"[Element Nb, Element Al, Element Ga]","{'Nb': 3.0, 'Al': 0.967, 'Ga': 0.033}",Other,3
Nb3Al0.95Ga0.05,19.2,Nb3 Al0.95 Ga0.05,"[Element Nb, Element Al, Element Ga]","{'Nb': 3.0, 'Al': 0.95, 'Ga': 0.05}",Other,3
Nb3Al0.927Ga0.073,19.2,Nb3 Al0.927 Ga0.073,"[Element Nb, Element Al, Element Ga]","{'Nb': 3.0, 'Al': 0.927, 'Ga': 0.073}",Other,3
Nb3Al0.907Ga0.093,19.1,Nb3 Al0.907 Ga0.093,"[Element Nb, Element Al, Element Ga]","{'Nb': 3.0, 'Al': 0.907, 'Ga': 0.093}",Other,3
Nb3Al0.991Ge0.009,19.0,Nb3 Al0.991 Ge0.009,"[Element Nb, Element Al, Element Ge]","{'Nb': 3.0, 'Al': 0.991, 'Ge': 0.009}",Other,3
Nb3Al0.98Ge0.02,19.3,Nb3 Al0.98 Ge0.02,"[Element Nb, Element Al, Element Ge]","{'Nb': 3.0, 'Al': 0.98, 'Ge': 0.02}",Other,3
Nb3Al0.97Ge0.03,19.6,Nb3 Al0.97 Ge0.03,"[Element Nb, Element Al, Element Ge]","{'Nb': 3.0, 'Al': 0.97, 'Ge': 0.03}",Other,3
Nb3Al0.96Ge0.04,19.8,Nb3 Al0.96 Ge0.04,"[Element Nb, Element Al, Element Ge]","{'Nb': 3.0, 'Al': 0.96, 'Ge': 0.04}",Other,3
Nb3Al0.95Ge0.05,20.0,Nb3 Al0.95 Ge0.05,"[Element Nb, Element Al, Element Ge]","{'Nb': 3.0, 'Al': 0.95, 'Ge': 0.05}",Other,3
Nb3Al0.94Ge0.06,20.0,Nb3 Al0.94 Ge0.06,"[Element Nb, Element Al, Element Ge]","{'Nb': 3.0, 'Al': 0.94, 'Ge': 0.06}",Other,3
Nb3Al0.93Ge0.07,20.0,Nb3 Al0.93 Ge0.07,"[Element Nb, Element Al, Element Ge]","{'Nb': 3.0, 'Al': 0.93, 'Ge': 0.07}",Other,3
Nb3Al0.92Ge0.08,19.9,Nb3 Al0.92 Ge0.08,"[Element Nb, Element Al, Element Ge]","{'Nb': 3.0, 'Al': 0.92, 'Ge': 0.08}",Other,3
Nb3Al0.91Ge0.09,19.8,Nb3 Al0.91 Ge0.09,"[Element Nb, Element Al, Element Ge]","{'Nb': 3.0, 'Al': 0.91, 'Ge': 0.09}",Other,3
Ga0.32Nb0.68,20.2,Ga0.32 Nb0.68,"[Element Ga, Element Nb]","{'Ga': 0.32, 'Nb': 0.68}",Other,2
Ga0.245Nb0.755,20.2,Ga0.245 Nb0.755,"[Element Ga, Element Nb]","{'Ga': 0.245, 'Nb': 0.755}",Other,2
Ga0.3Nb0.7,16.3,Ga0.3 Nb0.7,"[Element Ga, Element Nb]","{'Ga': 0.3, 'Nb': 0.7}",Other,2
Ga0.19Nb0.81,13.3,Ga0.19 Nb0.81,"[Element Ga, Element Nb]","{'Ga': 0.19, 'Nb': 0.81}",Other,2
Nb0.79Al0.164Ga0.057,20.7,Nb0.79 Al0.164 Ga0.057,"[Element Nb, Element Al, Element Ga]","{'Nb': 0.79, 'Al': 0.164, 'Ga': 0.057}",Other,3
Nb3Al0.9B0.1,19.8,Nb3 Al0.9 B0.1,"[Element Nb, Element Al, Element B]","{'Nb': 3.0, 'Al': 0.9, 'B': 0.1}",Other,3
Nb3Al0.8B0.2,17.8,Nb3 Al0.8 B0.2,"[Element Nb, Element Al, Element B]","{'Nb': 3.0, 'Al': 0.8, 'B': 0.2}",Other,3
Nb3Al0.9Be0.1,19.8,Nb3 Al0.9 Be0.1,"[Element Nb, Element Al, Element Be]","{'Nb': 3.0, 'Al': 0.9, 'Be': 0.1}",Other,3
Nb3Al0.8Be0.2,17.0,Nb3 Al0.8 Be0.2,"[Element Nb, Element Al, Element Be]","{'Nb': 3.0, 'Al': 0.8, 'Be': 0.2}",Other,3
Nb3Al0.7Be0.3,14.0,Nb3 Al0.7 Be0.3,"[Element Nb, Element Al, Element Be]","{'Nb': 3.0, 'Al': 0.7, 'Be': 0.3}",Other,3
Nb0.75Al0.19Ge0.06,20.9,Nb0.75 Al0.19 Ge0.06,"[Element Nb, Element Al, Element Ge]","{'Nb': 0.75, 'Al': 0.19, 'Ge': 0.06}",Other,3
U0.99Th0.01Be13,0.624,U0.99 Th0.01 Be13,"[Element U, Element Th, Element Be]","{'U': 0.99, 'Th': 0.01, 'Be': 13.0}",Other,3
U0.983Th0.017Be13,0.525,U0.983 Th0.017 Be13,"[Element U, Element Th, Element Be]","{'U': 0.983, 'Th': 0.017, 'Be': 13.0}",Other,3
U0.9822Th0.0178Be13,0.519,U0.9822 Th0.0178 Be13,"[Element U, Element Th, Element Be]","{'U': 0.9822, 'Th': 0.0178, 'Be': 13.0}",Other,3
U0.9815Th0.0185Be13,0.519,U0.9815 Th0.0185 Be13,"[Element U, Element Th, Element Be]","{'U': 0.9815, 'Th': 0.0185, 'Be': 13.0}",Other,3
U0.978Th0.022Be13,0.558,U0.978 Th0.022 Be13,"[Element U, Element Th, Element Be]","{'U': 0.978, 'Th': 0.022, 'Be': 13.0}",Other,3
U0.962Th0.038Be13,0.532,U0.962 Th0.038 Be13,"[Element U, Element Th, Element Be]","{'U': 0.962, 'Th': 0.038, 'Be': 13.0}",Other,3
U0.957Th0.043Be13,0.533,U0.957 Th0.043 Be13,"[Element U, Element Th, Element Be]","{'U': 0.957, 'Th': 0.043, 'Be': 13.0}",Other,3
U0.9545Th0.0455Be13,0.46,U0.9545 Th0.0455 Be13,"[Element U, Element Th, Element Be]","{'U': 0.9545, 'Th': 0.0455, 'Be': 13.0}",Other,3
U0.9535Th0.0465Be13,0.415,U0.9535 Th0.0465 Be13,"[Element U, Element Th, Element Be]","{'U': 0.9535, 'Th': 0.0465, 'Be': 13.0}",Other,3
U0.948Th0.052Be13,0.38,U0.948 Th0.052 Be13,"[Element U, Element Th, Element Be]","{'U': 0.948, 'Th': 0.052, 'Be': 13.0}",Other,3
La1Ni1Sn1,0.59,La1 Ni1 Sn1,"[Element La, Element Ni, Element Sn]","{'La': 1.0, 'Ni': 1.0, 'Sn': 1.0}",Other,3
La1Pt1Si1,3.9,La1 Pt1 Si1,"[Element La, Element Pt, Element Si]","{'La': 1.0, 'Pt': 1.0, 'Si': 1.0}",Other,3
La0.9997Ce0.0003Pt1Si1,3.2,La0.9997 Ce0.0003 Pt1 Si1,"[Element La, Element Ce, Element Pt, Element Si]","{'La': 0.9997, 'Ce': 0.0003, 'Pt': 1.0, 'Si': 1.0}",Other,4
La0.9991Ce0.0009Pt1Si1,2.03,La0.9991 Ce0.0009 Pt1 Si1,"[Element La, Element Ce, Element Pt, Element Si]","{'La': 0.9991, 'Ce': 0.0009, 'Pt': 1.0, 'Si': 1.0}",Other,4
La0.9989Ce0.0011Pt1Si1,1.5,La0.9989 Ce0.0011 Pt1 Si1,"[Element La, Element Ce, Element Pt, Element Si]","{'La': 0.9989, 'Ce': 0.0011, 'Pt': 1.0, 'Si': 1.0}",Other,4
C0.78W0.22Si1,2.9,C0.78 W0.22 Si1,"[Element C, Element W, Element Si]","{'C': 0.78, 'W': 0.22, 'Si': 1.0}",Other,3
C0.74W0.26Si1,3.3,C0.74 W0.26 Si1,"[Element C, Element W, Element Si]","{'C': 0.74, 'W': 0.26, 'Si': 1.0}",Other,3
C0.72W0.28Si1,3.9,C0.72 W0.28 Si1,"[Element C, Element W, Element Si]","{'C': 0.72, 'W': 0.28, 'Si': 1.0}",Other,3
Al0.029Ti0.971,0.65,Al0.029 Ti0.971,"[Element Al, Element Ti]","{'Al': 0.029, 'Ti': 0.971}",Other,2
Al0.053Ti0.947,0.7,Al0.053 Ti0.947,"[Element Al, Element Ti]","{'Al': 0.053, 'Ti': 0.947}",Other,2
Al0.102Ti0.898,0.73,Al0.102 Ti0.898,"[Element Al, Element Ti]","{'Al': 0.102, 'Ti': 0.898}",Other,2
Nb0.75Al0.225Ga0.025,19.1,Nb0.75 Al0.225 Ga0.025,"[Element Nb, Element Al, Element Ga]","{'Nb': 0.75, 'Al': 0.225, 'Ga': 0.025}",Other,3
Nb0.75Al0.16Ga0.09,19.45,Nb0.75 Al0.16 Ga0.09,"[Element Nb, Element Al, Element Ga]","{'Nb': 0.75, 'Al': 0.16, 'Ga': 0.09}",Other,3
Nb0.75Al0.175Ga0.075,19.1,Nb0.75 Al0.175 Ga0.075,"[Element Nb, Element Al, Element Ga]","{'Nb': 0.75, 'Al': 0.175, 'Ga': 0.075}",Other,3
Nb0.75Al0.2Ge0.05,16.5,Nb0.75 Al0.2 Ge0.05,"[Element Nb, Element Al, Element Ge]","{'Nb': 0.75, 'Al': 0.2, 'Ge': 0.05}",Other,3
Nb0.75Al0.185Ge0.065,20.26,Nb0.75 Al0.185 Ge0.065,"[Element Nb, Element Al, Element Ge]","{'Nb': 0.75, 'Al': 0.185, 'Ge': 0.065}",Other,3
Nb0.75Al0.1875Ge0.0625,20.0,Nb0.75 Al0.1875 Ge0.0625,"[Element Nb, Element Al, Element Ge]","{'Nb': 0.75, 'Al': 0.1875, 'Ge': 0.0625}",Other,3
Nb0.75Al0.02Ge0.05,19.8,Nb0.75 Al0.02 Ge0.05,"[Element Nb, Element Al, Element Ge]","{'Nb': 0.75, 'Al': 0.02, 'Ge': 0.05}",Other,3
Nb0.75Al0.18Ge0.07,19.8,Nb0.75 Al0.18 Ge0.07,"[Element Nb, Element Al, Element Ge]","{'Nb': 0.75, 'Al': 0.18, 'Ge': 0.07}",Other,3
Nb0.79Al0.16Ge0.05,21.0,Nb0.79 Al0.16 Ge0.05,"[Element Nb, Element Al, Element Ge]","{'Nb': 0.79, 'Al': 0.16, 'Ge': 0.05}",Other,3
Nb0.75Al0.175Ge0.075,17.9,Nb0.75 Al0.175 Ge0.075,"[Element Nb, Element Al, Element Ge]","{'Nb': 0.75, 'Al': 0.175, 'Ge': 0.075}",Other,3
Nb0.75Al0.21Ge0.04,20.0,Nb0.75 Al0.21 Ge0.04,"[Element Nb, Element Al, Element Ge]","{'Nb': 0.75, 'Al': 0.21, 'Ge': 0.04}",Other,3
Nb0.75Al0.23Ge0.02,19.2,Nb0.75 Al0.23 Ge0.02,"[Element Nb, Element Al, Element Ge]","{'Nb': 0.75, 'Al': 0.23, 'Ge': 0.02}",Other,3
Nb0.75Al0.17Ge0.08,19.8,Nb0.75 Al0.17 Ge0.08,"[Element Nb, Element Al, Element Ge]","{'Nb': 0.75, 'Al': 0.17, 'Ge': 0.08}",Other,3
Nb0.75Al0.16Ge0.09,19.7,Nb0.75 Al0.16 Ge0.09,"[Element Nb, Element Al, Element Ge]","{'Nb': 0.75, 'Al': 0.16, 'Ge': 0.09}",Other,3
Nb0.768Al0.146Ge0.086,17.4,Nb0.768 Al0.146 Ge0.086,"[Element Nb, Element Al, Element Ge]","{'Nb': 0.768, 'Al': 0.146, 'Ge': 0.086}",Other,3
Nb0.76Al0.18Ge0.06,17.88,Nb0.76 Al0.18 Ge0.06,"[Element Nb, Element Al, Element Ge]","{'Nb': 0.76, 'Al': 0.18, 'Ge': 0.06}",Other,3
Nb0.75Al0.225Ge0.025,17.9,Nb0.75 Al0.225 Ge0.025,"[Element Nb, Element Al, Element Ge]","{'Nb': 0.75, 'Al': 0.225, 'Ge': 0.025}",Other,3
Nb0.75Al0.178Ge0.072,20.1,Nb0.75 Al0.178 Ge0.072,"[Element Nb, Element Al, Element Ge]","{'Nb': 0.75, 'Al': 0.178, 'Ge': 0.072}",Other,3
Nb0.73Al0.255Si0.015,18.7,Nb0.73 Al0.255 Si0.015,"[Element Nb, Element Al, Element Si]","{'Nb': 0.73, 'Al': 0.255, 'Si': 0.015}",Other,3
Nb0.75Al0.225Si0.025,16.4,Nb0.75 Al0.225 Si0.025,"[Element Nb, Element Al, Element Si]","{'Nb': 0.75, 'Al': 0.225, 'Si': 0.025}",Other,3
Nb0.75Al0.2Si0.05,15.4,Nb0.75 Al0.2 Si0.05,"[Element Nb, Element Al, Element Si]","{'Nb': 0.75, 'Al': 0.2, 'Si': 0.05}",Other,3
Nb0.75Al0.15Si0.1,15.4,Nb0.75 Al0.15 Si0.1,"[Element Nb, Element Al, Element Si]","{'Nb': 0.75, 'Al': 0.15, 'Si': 0.1}",Other,3
As1Nb3,6.5,As1 Nb3,"[Element As, Element Nb]","{'As': 1.0, 'Nb': 3.0}",Other,2
Au0.2Nb0.8,7.9,Au0.2 Nb0.8,"[Element Au, Element Nb]","{'Au': 0.2, 'Nb': 0.8}",Other,2
Au0.242Nb0.758,10.56,Au0.242 Nb0.758,"[Element Au, Element Nb]","{'Au': 0.242, 'Nb': 0.758}",Other,2
Au0.24Nb0.76,10.56,Au0.24 Nb0.76,"[Element Au, Element Nb]","{'Au': 0.24, 'Nb': 0.76}",Other,2
Au0.22Nb0.78,7.6,Au0.22 Nb0.78,"[Element Au, Element Nb]","{'Au': 0.22, 'Nb': 0.78}",Other,2
Nb0.75Au0.175Pt0.075,12.9,Nb0.75 Au0.175 Pt0.075,"[Element Nb, Element Au, Element Pt]","{'Nb': 0.75, 'Au': 0.175, 'Pt': 0.075}",Other,3
C0.93Nb1,6.5,C0.93 Nb1,"[Element C, Element Nb]","{'C': 0.93, 'Nb': 1.0}",Other,2
C0.9Nb1,5.0,C0.9 Nb1,"[Element C, Element Nb]","{'C': 0.9, 'Nb': 1.0}",Other,2
C0.985Nb1,12.0,C0.985 Nb1,"[Element C, Element Nb]","{'C': 0.985, 'Nb': 1.0}",Other,2
C0.96Nb1,9.8,C0.96 Nb1,"[Element C, Element Nb]","{'C': 0.96, 'Nb': 1.0}",Other,2
Nb0.71Mo0.29C1,13.45,Nb0.71 Mo0.29 C1,"[Element Nb, Element Mo, Element C]","{'Nb': 0.71, 'Mo': 0.29, 'C': 1.0}",Other,3
Ga0.251Nb0.749,19.9,Ga0.251 Nb0.749,"[Element Ga, Element Nb]","{'Ga': 0.251, 'Nb': 0.749}",Other,2
Ga0.25Nb0.75,20.0,Ga0.25 Nb0.75,"[Element Ga, Element Nb]","{'Ga': 0.25, 'Nb': 0.75}",Other,2
Ge0.02Nb0.98,5.2,Ge0.02 Nb0.98,"[Element Ge, Element Nb]","{'Ge': 0.02, 'Nb': 0.98}",Other,2
Ge0.045Nb0.955,4.15,Ge0.045 Nb0.955,"[Element Ge, Element Nb]","{'Ge': 0.045, 'Nb': 0.955}",Other,2
Ge0.18Nb0.82,6.05,Ge0.18 Nb0.82,"[Element Ge, Element Nb]","{'Ge': 0.18, 'Nb': 0.82}",Other,2
Ga0.2Nb0.8,15.3,Ga0.2 Nb0.8,"[Element Ga, Element Nb]","{'Ga': 0.2, 'Nb': 0.8}",Other,2
Nb0.8Ga0.19Ni0.01,14.1,Nb0.8 Ga0.19 Ni0.01,"[Element Nb, Element Ga, Element Ni]","{'Nb': 0.8, 'Ga': 0.19, 'Ni': 0.01}",Other,3
Nb0.8Ga0.18Ni0.02,12.4,Nb0.8 Ga0.18 Ni0.02,"[Element Nb, Element Ga, Element Ni]","{'Nb': 0.8, 'Ga': 0.18, 'Ni': 0.02}",Other,3