chemical_formula,Tc,composition,elements,stoichiometry,Category,num_elements
Bi0.1Pb0.4La1.3Sr1.2Cu2O5.83,25.0,Bi0.1 Pb0.4 La1.3 Sr1.2 Cu2 O5.83,"[Element Bi, Element Pb, Element La, Element Sr, Element Cu, Element O]","{'Bi': 0.1, 'Pb': 0.4, 'La': 1.3, 'Sr': 1.2, 'Cu': 2.0, 'O': 5.83}",Cuprates,6
Bi0.1Pb0.4La1.4Sr1.1Cu2O5.84,25.0,Bi0.1 Pb0.4 La1.4 Sr1.1 Cu2 O5.84,"[Element Bi, Element Pb, Element La, Element Sr, Element Cu, Element O]","{'Bi': 0.1, 'Pb': 0.4, 'La': 1.4, 'Sr': 1.1, 'Cu': 2.0, 'O': 5.84}",Cuprates,6
Ta0.5Nb0.5C1,11.1,Ta0.5 Nb0.5 C1,"[Element Ta, Element Nb, Element C]","{'Ta': 0.5, 'Nb': 0.5, 'C': 1.0}",Other,3
Er2Fe3Si5,0.93,Er2 Fe3 Si5,"[Element Er, Element Fe, Element Si]","{'Er': 2.0, 'Fe': 3.0, 'Si': 5.0}",Fe-based,3
U1Co1Ge0.98Si0.02,0.667,U1 Co1 Ge0.98 Si0.02,"[Element U, Element Co, Element Ge, Element Si]","{'U': 1.0, 'Co': 1.0, 'Ge': 0.98, 'Si': 0.02}",Other,4
U1Co1Ge0.96Si0.04,0.541,U1 Co1 Ge0.96 Si0.04,"[Element U, Element Co, Element Ge, Element Si]","{'U': 1.0, 'Co': 1.0, 'Ge': 0.96, 'Si': 0.04}",Other,4
U1Co1Ge0.94Si0.06,0.423,U1 Co1 Ge0.94 Si0.06,"[Element U, Element Co, Element Ge, Element Si]","{'U': 1.0, 'Co': 1.0, 'Ge': 0.94, 'Si': 0.06}",Other,4
U1Co1Ge0.92Si0.08,0.288,U1 Co1 Ge0.92 Si0.08,"[Element U, Element Co, Element Ge, Element Si]","{'U': 1.0, 'Co': 1.0, 'Ge': 0.92, 'Si': 0.08}",Other,4
U1Co1Ge0.9Si0.1,0.153,U1 Co1 Ge0.9 Si0.1,"[Element U, Element Co, Element Ge, Element Si]","{'U': 1.0, 'Co': 1.0, 'Ge': 0.9, 'Si': 0.1}",Other,4
La1Pt3Si1,0.6,La1 Pt3 Si1,"[Element La, Element Pt, Element Si]","{'La': 1.0, 'Pt': 3.0, 'Si': 1.0}",Other,3
La1Rh1Sn1,1.85,La1 Rh1 Sn1,"[Element La, Element Rh, Element Sn]","{'La': 1.0, 'Rh': 1.0, 'Sn': 1.0}",Other,3
La1Pt1Ge1,3.4,La1 Pt1 Ge1,"[Element La, Element Pt, Element Ge]","{'La': 1.0, 'Pt': 1.0, 'Ge': 1.0}",Other,3
Ca1Li2,13.0,Ca1 Li2,"[Element Ca, Element Li]","{'Ca': 1.0, 'Li': 2.0}",Other,2
Rb0.14W1O3,5.1,Rb0.14 W1 O3,"[Element Rb, Element W, Element O]","{'Rb': 0.14, 'W': 1.0, 'O': 3.0}",Other,3
Rb0.16W1O3,5.1,Rb0.16 W1 O3,"[Element Rb, Element W, Element O]","{'Rb': 0.16, 'W': 1.0, 'O': 3.0}",Other,3
Mg1B1.904C0.096,35.5,Mg1 B1.904 C0.096,"[Element Mg, Element B, Element C]","{'Mg': 1.0, 'B': 1.904, 'C': 0.096}",Other,3
La1Fe1As1F0.11O0.89,27.5,La1 Fe1 As1 F0.11 O0.89,"[Element La, Element Fe, Element As, Element F, Element O]","{'La': 1.0, 'Fe': 1.0, 'As': 1.0, 'F': 0.11, 'O': 0.89}",Fe-based,5
La1F0.05Fe1As1O0.95,26.0,La1 F0.05 Fe1 As1 O0.95,"[Element La, Element F, Element Fe, Element As, Element O]","{'La': 1.0, 'F': 0.05, 'Fe': 1.0, 'As': 1.0, 'O': 0.95}",Fe-based,5
La1Ni1P1O1,3.0,La1 Ni1 P1 O1,"[Element La, Element Ni, Element P, Element O]","{'La': 1.0, 'Ni': 1.0, 'P': 1.0, 'O': 1.0}",Other,4
Th1Pt4Ge12,4.8,Th1 Pt4 Ge12,"[Element Th, Element Pt, Element Ge]","{'Th': 1.0, 'Pt': 4.0, 'Ge': 12.0}",Other,3
Mg1C0.98Ni3,6.5,Mg1 C0.98 Ni3,"[Element Mg, Element C, Element Ni]","{'Mg': 1.0, 'C': 0.98, 'Ni': 3.0}",Other,3
Mg1C0.69Ni3,1.8,Mg1 C0.69 Ni3,"[Element Mg, Element C, Element Ni]","{'Mg': 1.0, 'C': 0.69, 'Ni': 3.0}",Other,3
B2Nb0.83,9.77,B2 Nb0.83,"[Element B, Element Nb]","{'B': 2.0, 'Nb': 0.83}",Other,2
La1Ru2P2,4.1,La1 Ru2 P2,"[Element La, Element Ru, Element P]","{'La': 1.0, 'Ru': 2.0, 'P': 2.0}",Other,3
La1Ir2Ge2,1.5,La1 Ir2 Ge2,"[Element La, Element Ir, Element Ge]","{'La': 1.0, 'Ir': 2.0, 'Ge': 2.0}",Other,3
Ba1Ni2P2,3.0,Ba1 Ni2 P2,"[Element Ba, Element Ni, Element P]","{'Ba': 1.0, 'Ni': 2.0, 'P': 2.0}",Other,3
La0.87Sr0.13Fe1As1O1,20.3,La0.87 Sr0.13 Fe1 As1 O1,"[Element La, Element Sr, Element Fe, Element As, Element O]","{'La': 0.87, 'Sr': 0.13, 'Fe': 1.0, 'As': 1.0, 'O': 1.0}",Fe-based,5
La1Fe1As1F0.1O0.9,25.8,La1 Fe1 As1 F0.1 O0.9,"[Element La, Element Fe, Element As, Element F, Element O]","{'La': 1.0, 'Fe': 1.0, 'As': 1.0, 'F': 0.1, 'O': 0.9}",Fe-based,5
Li0.37Hf1N1Cl1,20.0,Li0.37 Hf1 N1 Cl1,"[Element Li, Element Hf, Element N, Element Cl]","{'Li': 0.37, 'Hf': 1.0, 'N': 1.0, 'Cl': 1.0}",Other,4
Ce0.9La0.1Rh1In5,1.6,Ce0.9 La0.1 Rh1 In5,"[Element Ce, Element La, Element Rh, Element In]","{'Ce': 0.9, 'La': 0.1, 'Rh': 1.0, 'In': 5.0}",Other,4
Ce1Rh1In4.84Sn0.16,1.2,Ce1 Rh1 In4.84 Sn0.16,"[Element Ce, Element Rh, Element In, Element Sn]","{'Ce': 1.0, 'Rh': 1.0, 'In': 4.84, 'Sn': 0.16}",Other,4
B2Mg0.98,38.4,B2 Mg0.98,"[Element B, Element Mg]","{'B': 2.0, 'Mg': 0.98}",Other,2
Mg0.95Li0.05B2,38.25,Mg0.95 Li0.05 B2,"[Element Mg, Element Li, Element B]","{'Mg': 0.95, 'Li': 0.05, 'B': 2.0}",Other,3
Mg0.92Li0.08B2,38.0,Mg0.92 Li0.08 B2,"[Element Mg, Element Li, Element B]","{'Mg': 0.92, 'Li': 0.08, 'B': 2.0}",Other,3
Mg0.89Li0.11B2,35.3,Mg0.89 Li0.11 B2,"[Element Mg, Element Li, Element B]","{'Mg': 0.89, 'Li': 0.11, 'B': 2.0}",Other,3
Mg0.94Li0.06B1.96C0.04,35.6,Mg0.94 Li0.06 B1.96 C0.04,"[Element Mg, Element Li, Element B, Element C]","{'Mg': 0.94, 'Li': 0.06, 'B': 1.96, 'C': 0.04}",Other,4
Mg0.91Li0.09B1.84C0.16,30.15,Mg0.91 Li0.09 B1.84 C0.16,"[Element Mg, Element Li, Element B, Element C]","{'Mg': 0.91, 'Li': 0.09, 'B': 1.84, 'C': 0.16}",Other,4
Mg0.9Li0.1B1.82C0.18,28.5,Mg0.9 Li0.1 B1.82 C0.18,"[Element Mg, Element Li, Element B, Element C]","{'Mg': 0.9, 'Li': 0.1, 'B': 1.82, 'C': 0.18}",Other,4
Mg0.89Li0.11B1.88C0.12,29.9,Mg0.89 Li0.11 B1.88 C0.12,"[Element Mg, Element Li, Element B, Element C]","{'Mg': 0.89, 'Li': 0.11, 'B': 1.88, 'C': 0.12}",Other,4
La1.865Ce0.135Cu1O4,21.2,La1.865 Ce0.135 Cu1 O4,"[Element La, Element Ce, Element Cu, Element O]","{'La': 1.865, 'Ce': 0.135, 'Cu': 1.0, 'O': 4.0}",Cuprates,4
Ru0.8Sn0.2Sr2Eu1Cu2O8,30.3,Ru0.8 Sn0.2 Sr2 Eu1 Cu2 O8,"[Element Ru, Element Sn, Element Sr, Element Eu, Element Cu, Element O]","{'Ru': 0.8, 'Sn': 0.2, 'Sr': 2.0, 'Eu': 1.0, 'Cu': 2.0, 'O': 8.0}",Cuprates,6
Ru0.6Sn0.4Sr2Eu1Cu2O8,24.2,Ru0.6 Sn0.4 Sr2 Eu1 Cu2 O8,"[Element Ru, Element Sn, Element Sr, Element Eu, Element Cu, Element O]","{'Ru': 0.6, 'Sn': 0.4, 'Sr': 2.0, 'Eu': 1.0, 'Cu': 2.0, 'O': 8.0}",Cuprates,6
Sr0.875La0.125Cu1O2,36.9,Sr0.875 La0.125 Cu1 O2,"[Element Sr, Element La, Element Cu, Element O]","{'Sr': 0.875, 'La': 0.125, 'Cu': 1.0, 'O': 2.0}",Cuprates,4
Sr0.85La0.15Cu1O2,31.9,Sr0.85 La0.15 Cu1 O2,"[Element Sr, Element La, Element Cu, Element O]","{'Sr': 0.85, 'La': 0.15, 'Cu': 1.0, 'O': 2.0}",Cuprates,4
Mg0.98Co0.02B2,37.4,Mg0.98 Co0.02 B2,"[Element Mg, Element Co, Element B]","{'Mg': 0.98, 'Co': 0.02, 'B': 2.0}",Other,3
Mg0.97Co0.03B2,36.2,Mg0.97 Co0.03 B2,"[Element Mg, Element Co, Element B]","{'Mg': 0.97, 'Co': 0.03, 'B': 2.0}",Other,3
La1Ru2Si2,3.5,La1 Ru2 Si2,"[Element La, Element Ru, Element Si]","{'La': 1.0, 'Ru': 2.0, 'Si': 2.0}",Other,3
Lu1Ru2Si2,2.4,Lu1 Ru2 Si2,"[Element Lu, Element Ru, Element Si]","{'Lu': 1.0, 'Ru': 2.0, 'Si': 2.0}",Other,3
Sm1Fe1As1F0.1O0.9,4.47,Sm1 Fe1 As1 F0.1 O0.9,"[Element Sm, Element Fe, Element As, Element F, Element O]","{'Sm': 1.0, 'Fe': 1.0, 'As': 1.0, 'F': 0.1, 'O': 0.9}",Fe-based,5
Sm1Fe1As1F0.12O0.88,17.3,Sm1 Fe1 As1 F0.12 O0.88,"[Element Sm, Element Fe, Element As, Element F, Element O]","{'Sm': 1.0, 'Fe': 1.0, 'As': 1.0, 'F': 0.12, 'O': 0.88}",Fe-based,5
Sm1Fe1As1F0.14O0.86,26.8,Sm1 Fe1 As1 F0.14 O0.86,"[Element Sm, Element Fe, Element As, Element F, Element O]","{'Sm': 1.0, 'Fe': 1.0, 'As': 1.0, 'F': 0.14, 'O': 0.86}",Fe-based,5
Sm1Fe1As1F0.15O0.85,42.3,Sm1 Fe1 As1 F0.15 O0.85,"[Element Sm, Element Fe, Element As, Element F, Element O]","{'Sm': 1.0, 'Fe': 1.0, 'As': 1.0, 'F': 0.15, 'O': 0.85}",Fe-based,5
Sm1Fe1As1F0.2O0.8,52.4,Sm1 Fe1 As1 F0.2 O0.8,"[Element Sm, Element Fe, Element As, Element F, Element O]","{'Sm': 1.0, 'Fe': 1.0, 'As': 1.0, 'F': 0.2, 'O': 0.8}",Fe-based,5
Sm1Fe1As1O0.85,55.0,Sm1 Fe1 As1 O0.85,"[Element Sm, Element Fe, Element As, Element O]","{'Sm': 1.0, 'Fe': 1.0, 'As': 1.0, 'O': 0.85}",Fe-based,4
Pr1Fe1As1O0.85,48.2,Pr1 Fe1 As1 O0.85,"[Element Pr, Element Fe, Element As, Element O]","{'Pr': 1.0, 'Fe': 1.0, 'As': 1.0, 'O': 0.85}",Fe-based,4
Ce1Fe1As1O0.85,42.6,Ce1 Fe1 As1 O0.85,"[Element Ce, Element Fe, Element As, Element O]","{'Ce': 1.0, 'Fe': 1.0, 'As': 1.0, 'O': 0.85}",Fe-based,4
La1Fe1As1O0.85,28.3,La1 Fe1 As1 O0.85,"[Element La, Element Fe, Element As, Element O]","{'La': 1.0, 'Fe': 1.0, 'As': 1.0, 'O': 0.85}",Fe-based,4
Ba0.6K0.4Fe2As2,38.0,Ba0.6 K0.4 Fe2 As2,"[Element Ba, Element K, Element Fe, Element As]","{'Ba': 0.6, 'K': 0.4, 'Fe': 2.0, 'As': 2.0}",Fe-based,4
Ba0.5K0.5Fe2As2O1,36.0,Ba0.5 K0.5 Fe2 As2 O1,"[Element Ba, Element K, Element Fe, Element As, Element O]","{'Ba': 0.5, 'K': 0.5, 'Fe': 2.0, 'As': 2.0, 'O': 1.0}",Fe-based,5
Sr0.6K0.4Fe2As2,38.0,Sr0.6 K0.4 Fe2 As2,"[Element Sr, Element K, Element Fe, Element As]","{'Sr': 0.6, 'K': 0.4, 'Fe': 2.0, 'As': 2.0}",Fe-based,4
La0.9Sr0.1Ni1As1O1,3.7,La0.9 Sr0.1 Ni1 As1 O1,"[Element La, Element Sr, Element Ni, Element As, Element O]","{'La': 0.9, 'Sr': 0.1, 'Ni': 1.0, 'As': 1.0, 'O': 1.0}",Other,5
La0.8Sr0.2Ni1As1O1,3.5,La0.8 Sr0.2 Ni1 As1 O1,"[Element La, Element Sr, Element Ni, Element As, Element O]","{'La': 0.8, 'Sr': 0.2, 'Ni': 1.0, 'As': 1.0, 'O': 1.0}",Other,5
La1Ni1As1O1,2.75,La1 Ni1 As1 O1,"[Element La, Element Ni, Element As, Element O]","{'La': 1.0, 'Ni': 1.0, 'As': 1.0, 'O': 1.0}",Other,4
Ce1Fe1As1F0.16O0.84,41.0,Ce1 Fe1 As1 F0.16 O0.84,"[Element Ce, Element Fe, Element As, Element F, Element O]","{'Ce': 1.0, 'Fe': 1.0, 'As': 1.0, 'F': 0.16, 'O': 0.84}",Fe-based,5
Ce1Fe1As1F0.12O0.88,40.0,Ce1 Fe1 As1 F0.12 O0.88,"[Element Ce, Element Fe, Element As, Element F, Element O]","{'Ce': 1.0, 'Fe': 1.0, 'As': 1.0, 'F': 0.12, 'O': 0.88}",Fe-based,5
Ce1Fe1As1F0.11O0.89,47.0,Ce1 Fe1 As1 F0.11 O0.89,"[Element Ce, Element Fe, Element As, Element F, Element O]","{'Ce': 1.0, 'Fe': 1.0, 'As': 1.0, 'F': 0.11, 'O': 0.89}",Fe-based,5
La1Fe1As1F0.6O0.4,40.0,La1 Fe1 As1 F0.6 O0.4,"[Element La, Element Fe, Element As, Element F, Element O]","{'La': 1.0, 'Fe': 1.0, 'As': 1.0, 'F': 0.6, 'O': 0.4}",Fe-based,5
La1Fe1As1F0.06O0.94,18.0,La1 Fe1 As1 F0.06 O0.94,"[Element La, Element Fe, Element As, Element F, Element O]","{'La': 1.0, 'Fe': 1.0, 'As': 1.0, 'F': 0.06, 'O': 0.94}",Fe-based,5
Sr1Fe1.8Co0.2As2,19.2,Sr1 Fe1.8 Co0.2 As2,"[Element Sr, Element Fe, Element Co, Element As]","{'Sr': 1.0, 'Fe': 1.8, 'Co': 0.2, 'As': 2.0}",Fe-based,4
Sr1Fe1.75Co0.25As2,18.1,Sr1 Fe1.75 Co0.25 As2,"[Element Sr, Element Fe, Element Co, Element As]","{'Sr': 1.0, 'Fe': 1.75, 'Co': 0.25, 'As': 2.0}",Fe-based,4
Sr1Fe1.6Co0.4As2,12.9,Sr1 Fe1.6 Co0.4 As2,"[Element Sr, Element Fe, Element Co, Element As]","{'Sr': 1.0, 'Fe': 1.6, 'Co': 0.4, 'As': 2.0}",Fe-based,4
Eu1Fe2As2,29.5,Eu1 Fe2 As2,"[Element Eu, Element Fe, Element As]","{'Eu': 1.0, 'Fe': 2.0, 'As': 2.0}",Fe-based,3
Lu0.75Th0.25Rh4B4,11.93,Lu0.75 Th0.25 Rh4 B4,"[Element Lu, Element Th, Element Rh, Element B]","{'Lu': 0.75, 'Th': 0.25, 'Rh': 4.0, 'B': 4.0}",Other,4
Sc0.75Th0.25Rh4B4,8.74,Sc0.75 Th0.25 Rh4 B4,"[Element Sc, Element Th, Element Rh, Element B]","{'Sc': 0.75, 'Th': 0.25, 'Rh': 4.0, 'B': 4.0}",Other,4
Nb1Ru1Si1,2.65,Nb1 Ru1 Si1,"[Element Nb, Element Ru, Element Si]","{'Nb': 1.0, 'Ru': 1.0, 'Si': 1.0}",Other,3
Ta1Ru1Si1,3.15,Ta1 Ru1 Si1,"[Element Ta, Element Ru, Element Si]","{'Ta': 1.0, 'Ru': 1.0, 'Si': 1.0}",Other,3
Nb1Re1Si1,5.1,Nb1 Re1 Si1,"[Element Nb, Element Re, Element Si]","{'Nb': 1.0, 'Re': 1.0, 'Si': 1.0}",Other,3
Ta1Re1Si1,4.4,Ta1 Re1 Si1,"[Element Ta, Element Re, Element Si]","{'Ta': 1.0, 'Re': 1.0, 'Si': 1.0}",Other,3
C6I4O2,0.8,C6 I4 O2,"[Element C, Element I, Element O]","{'C': 6.0, 'I': 4.0, 'O': 2.0}",Other,3
I4Sn1,1.96,I4 Sn1,"[Element I, Element Sn]","{'I': 4.0, 'Sn': 1.0}",Other,2
Sm1Fe1As1F0.13O0.87,24.7,Sm1 Fe1 As1 F0.13 O0.87,"[Element Sm, Element Fe, Element As, Element F, Element O]","{'Sm': 1.0, 'Fe': 1.0, 'As': 1.0, 'F': 0.13, 'O': 0.87}",Fe-based,5
Sm1Fe1As1F0.3O0.7,43.5,Sm1 Fe1 As1 F0.3 O0.7,"[Element Sm, Element Fe, Element As, Element F, Element O]","{'Sm': 1.0, 'Fe': 1.0, 'As': 1.0, 'F': 0.3, 'O': 0.7}",Fe-based,5
Ba1Pt3.75Au0.25Ge12,5.05,Ba1 Pt3.75 Au0.25 Ge12,"[Element Ba, Element Pt, Element Au, Element Ge]","{'Ba': 1.0, 'Pt': 3.75, 'Au': 0.25, 'Ge': 12.0}",Other,4
Ba1Pt3.5Au0.5Ge12,5.19,Ba1 Pt3.5 Au0.5 Ge12,"[Element Ba, Element Pt, Element Au, Element Ge]","{'Ba': 1.0, 'Pt': 3.5, 'Au': 0.5, 'Ge': 12.0}",Other,4
Ba1Pt3.25Au0.75Ge12,6.25,Ba1 Pt3.25 Au0.75 Ge12,"[Element Ba, Element Pt, Element Au, Element Ge]","{'Ba': 1.0, 'Pt': 3.25, 'Au': 0.75, 'Ge': 12.0}",Other,4
Ba1Pt3Au1Ge12,7.0,Ba1 Pt3 Au1 Ge12,"[Element Ba, Element Pt, Element Au, Element Ge]","{'Ba': 1.0, 'Pt': 3.0, 'Au': 1.0, 'Ge': 12.0}",Other,4
Ba0.55K0.45Fe2As2,29.5,Ba0.55 K0.45 Fe2 As2,"[Element Ba, Element K, Element Fe, Element As]","{'Ba': 0.55, 'K': 0.45, 'Fe': 2.0, 'As': 2.0}",Fe-based,4
Ca1Fe2As2,12.0,Ca1 Fe2 As2,"[Element Ca, Element Fe, Element As]","{'Ca': 1.0, 'Fe': 2.0, 'As': 2.0}",Fe-based,3
C1Si1,1.45,C1 Si1,"[Element C, Element Si]","{'C': 1.0, 'Si': 1.0}",Other,2
Li1Fe1As1,18.0,Li1 Fe1 As1,"[Element Li, Element Fe, Element As]","{'Li': 1.0, 'Fe': 1.0, 'As': 1.0}",Fe-based,3
Bi0.8Sn0.2,7.3,Bi0.8 Sn0.2,"[Element Bi, Element Sn]","{'Bi': 0.8, 'Sn': 0.2}",Other,2
Ti0.64Ta0.075Nb0.285,8.73,Ti0.64 Ta0.075 Nb0.285,"[Element Ti, Element Ta, Element Nb]","{'Ti': 0.64, 'Ta': 0.075, 'Nb': 0.285}",Other,3
B2.4Nb1,9.96,B2.4 Nb1,"[Element B, Element Nb]","{'B': 2.4, 'Nb': 1.0}",Other,2
B2.6Nb1,10.9,B2.6 Nb1,"[Element B, Element Nb]","{'B': 2.6, 'Nb': 1.0}",Other,2
B2.8Nb1,9.96,B2.8 Nb1,"[Element B, Element Nb]","{'B': 2.8, 'Nb': 1.0}",Other,2
B3Nb1,9.96,B3 Nb1,"[Element B, Element Nb]","{'B': 3.0, 'Nb': 1.0}",Other,2
La1Fe1As1F0.075O0.925,22.0,La1 Fe1 As1 F0.075 O0.925,"[Element La, Element Fe, Element As, Element F, Element O]","{'La': 1.0, 'Fe': 1.0, 'As': 1.0, 'F': 0.075, 'O': 0.925}",Fe-based,5
K1Fe2As2,3.8,K1 Fe2 As2,"[Element K, Element Fe, Element As]","{'K': 1.0, 'Fe': 2.0, 'As': 2.0}",Fe-based,3
Cs1Fe2As2,2.6,Cs1 Fe2 As2,"[Element Cs, Element Fe, Element As]","{'Cs': 1.0, 'Fe': 2.0, 'As': 2.0}",Fe-based,3
Cs0.4Sr0.6Fe2As2,36.6,Cs0.4 Sr0.6 Fe2 As2,"[Element Cs, Element Sr, Element Fe, Element As]","{'Cs': 0.4, 'Sr': 0.6, 'Fe': 2.0, 'As': 2.0}",Fe-based,4
Ba1Fe1.8Co0.2As2,22.0,Ba1 Fe1.8 Co0.2 As2,"[Element Ba, Element Fe, Element Co, Element As]","{'Ba': 1.0, 'Fe': 1.8, 'Co': 0.2, 'As': 2.0}",Fe-based,4
Cu0.03Ta1S2,3.79,Cu0.03 Ta1 S2,"[Element Cu, Element Ta, Element S]","{'Cu': 0.03, 'Ta': 1.0, 'S': 2.0}",Other,3
Cu0.04Ta1S2,4.2,Cu0.04 Ta1 S2,"[Element Cu, Element Ta, Element S]","{'Cu': 0.04, 'Ta': 1.0, 'S': 2.0}",Other,3
Cu0.06Ta1S2,4.16,Cu0.06 Ta1 S2,"[Element Cu, Element Ta, Element S]","{'Cu': 0.06, 'Ta': 1.0, 'S': 2.0}",Other,3
Cu0.08Ta1S2,3.45,Cu0.08 Ta1 S2,"[Element Cu, Element Ta, Element S]","{'Cu': 0.08, 'Ta': 1.0, 'S': 2.0}",Other,3
Cu0.1Ta1S2,2.71,Cu0.1 Ta1 S2,"[Element Cu, Element Ta, Element S]","{'Cu': 0.1, 'Ta': 1.0, 'S': 2.0}",Other,3
Cu0.12Ta1S2,1.82,Cu0.12 Ta1 S2,"[Element Cu, Element Ta, Element S]","{'Cu': 0.12, 'Ta': 1.0, 'S': 2.0}",Other,3
La1Fe0.95Co0.05As1O1,11.0,La1 Fe0.95 Co0.05 As1 O1,"[Element La, Element Fe, Element Co, Element As, Element O]","{'La': 1.0, 'Fe': 0.95, 'Co': 0.05, 'As': 1.0, 'O': 1.0}",Fe-based,5
La1Fe0.89Co0.11As1O1,14.0,La1 Fe0.89 Co0.11 As1 O1,"[Element La, Element Fe, Element Co, Element As, Element O]","{'La': 1.0, 'Fe': 0.89, 'Co': 0.11, 'As': 1.0, 'O': 1.0}",Fe-based,5
La1Fe0.85Co0.15As1O1,6.0,La1 Fe0.85 Co0.15 As1 O1,"[Element La, Element Fe, Element Co, Element As, Element O]","{'La': 1.0, 'Fe': 0.85, 'Co': 0.15, 'As': 1.0, 'O': 1.0}",Fe-based,5
Cu0.01Ta1S2,3.05,Cu0.01 Ta1 S2,"[Element Cu, Element Ta, Element S]","{'Cu': 0.01, 'Ta': 1.0, 'S': 2.0}",Other,3
Eu0.5K0.5Fe2As2,32.0,Eu0.5 K0.5 Fe2 As2,"[Element Eu, Element K, Element Fe, Element As]","{'Eu': 0.5, 'K': 0.5, 'Fe': 2.0, 'As': 2.0}",Fe-based,4
Sm1Fe1As1F0.18O0.82,45.0,Sm1 Fe1 As1 F0.18 O0.82,"[Element Sm, Element Fe, Element As, Element F, Element O]","{'Sm': 1.0, 'Fe': 1.0, 'As': 1.0, 'F': 0.18, 'O': 0.82}",Fe-based,5
B0.015C0.985,12.0,B0.015 C0.985,"[Element B, Element C]","{'B': 0.015, 'C': 0.985}",Other,2
Ge2Mo1,6.11,Ge2 Mo1,"[Element Ge, Element Mo]","{'Ge': 2.0, 'Mo': 1.0}",Other,2
La1Fe0.9875Co0.0125As1F0.11O0.89,25.0,La1 Fe0.9875 Co0.0125 As1 F0.11 O0.89,"[Element La, Element Fe, Element Co, Element As, Element F, Element O]","{'La': 1.0, 'Fe': 0.9875, 'Co': 0.0125, 'As': 1.0, 'F': 0.11, 'O': 0.89}",Fe-based,6
La1Fe0.98Co0.02As1F0.11O0.89,10.3,La1 Fe0.98 Co0.02 As1 F0.11 O0.89,"[Element La, Element Fe, Element Co, Element As, Element F, Element O]","{'La': 1.0, 'Fe': 0.98, 'Co': 0.02, 'As': 1.0, 'F': 0.11, 'O': 0.89}",Fe-based,6
La1.925Ba0.075Cu1O4,24.0,La1.925 Ba0.075 Cu1 O4,"[Element La, Element Ba, Element Cu, Element O]","{'La': 1.925, 'Ba': 0.075, 'Cu': 1.0, 'O': 4.0}",Cuprates,4
La1.84Sr0.05Ca0.11Cu1O4,33.2,La1.84 Sr0.05 Ca0.11 Cu1 O4,"[Element La, Element Sr, Element Ca, Element Cu, Element O]","{'La': 1.84, 'Sr': 0.05, 'Ca': 0.11, 'Cu': 1.0, 'O': 4.0}",Cuprates,5
La1.925Ca0.075Cu1O4,9.2,La1.925 Ca0.075 Cu1 O4,"[Element La, Element Ca, Element Cu, Element O]","{'La': 1.925, 'Ca': 0.075, 'Cu': 1.0, 'O': 4.0}",Cuprates,4
La1.912Ca0.0875Cu1O4,16.0,La1.912 Ca0.0875 Cu1 O4,"[Element La, Element Ca, Element Cu, Element O]","{'La': 1.912, 'Ca': 0.0875, 'Cu': 1.0, 'O': 4.0}",Cuprates,4
La1.887Ca0.1125Cu1O4,20.1,La1.887 Ca0.1125 Cu1 O4,"[Element La, Element Ca, Element Cu, Element O]","{'La': 1.887, 'Ca': 0.1125, 'Cu': 1.0, 'O': 4.0}",Cuprates,4
La1.834Sr0.166Cu1O4,35.0,La1.834 Sr0.166 Cu1 O4,"[Element La, Element Sr, Element Cu, Element O]","{'La': 1.834, 'Sr': 0.166, 'Cu': 1.0, 'O': 4.0}",Cuprates,4
La1.85Sr0.15Cu0.997Fe0.003O4,33.6,La1.85 Sr0.15 Cu0.997 Fe0.003 O4,"[Element La, Element Sr, Element Cu, Element Fe, Element O]","{'La': 1.85, 'Sr': 0.15, 'Cu': 0.997, 'Fe': 0.003, 'O': 4.0}",Cuprates,5
La1.85Sr0.15Cu0.995Fe0.005O4,30.82,La1.85 Sr0.15 Cu0.995 Fe0.005 O4,"[Element La, Element Sr, Element Cu, Element Fe, Element O]","{'La': 1.85, 'Sr': 0.15, 'Cu': 0.995, 'Fe': 0.005, 'O': 4.0}",Cuprates,5
La1.85Sr0.15Cu0.993Fe0.007O4,26.25,La1.85 Sr0.15 Cu0.993 Fe0.007 O4,"[Element La, Element Sr, Element Cu, Element Fe, Element O]","{'La': 1.85, 'Sr': 0.15, 'Cu': 0.993, 'Fe': 0.007, 'O': 4.0}",Cuprates,5
La1.85Sr0.15Cu0.991Fe0.009O4,19.85,La1.85 Sr0.15 Cu0.991 Fe0.009 O4,"[Element La, Element Sr, Element Cu, Element Fe, Element O]","{'La': 1.85, 'Sr': 0.15, 'Cu': 0.991, 'Fe': 0.009, 'O': 4.0}",Cuprates,5
La1.85Sr0.15Cu0.9975Co0.0025O4,34.8,La1.85 Sr0.15 Cu0.9975 Co0.0025 O4,"[Element La, Element Sr, Element Cu, Element Co, Element O]","{'La': 1.85, 'Sr': 0.15, 'Cu': 0.9975, 'Co': 0.0025, 'O': 4.0}",Cuprates,5
La1.85Sr0.15Cu0.995Co0.005O4,33.0,La1.85 Sr0.15 Cu0.995 Co0.005 O4,"[Element La, Element Sr, Element Cu, Element Co, Element O]","{'La': 1.85, 'Sr': 0.15, 'Cu': 0.995, 'Co': 0.005, 'O': 4.0}",Cuprates,5
La1.85Sr0.15Cu0.9925Co0.0075O4,30.6,La1.85 Sr0.15 Cu0.9925 Co0.0075 O4,"[Element La, Element Sr, Element Cu, Element Co, Element O]","{'La': 1.85, 'Sr': 0.15, 'Cu': 0.9925, 'Co': 0.0075, 'O': 4.0}",Cuprates,5
La1.85Sr0.15Cu0.99Co0.01O4,25.2,La1.85 Sr0.15 Cu0.99 Co0.01 O4,"[Element La, Element Sr, Element Cu, Element Co, Element O]","{'La': 1.85, 'Sr': 0.15, 'Cu': 0.99, 'Co': 0.01, 'O': 4.0}",Cuprates,5
La1.85Sr0.15Cu0.9875Co0.0125O4,22.9,La1.85 Sr0.15 Cu0.9875 Co0.0125 O4,"[Element La, Element Sr, Element Cu, Element Co, Element O]","{'La': 1.85, 'Sr': 0.15, 'Cu': 0.9875, 'Co': 0.0125, 'O': 4.0}",Cuprates,5
La1.85Sr0.15Cu0.9825Co0.0175O4,13.2,La1.85 Sr0.15 Cu0.9825 Co0.0175 O4,"[Element La, Element Sr, Element Cu, Element Co, Element O]","{'La': 1.85, 'Sr': 0.15, 'Cu': 0.9825, 'Co': 0.0175, 'O': 4.0}",Cuprates,5
La1Fe1As1O0.6,27.0,La1 Fe1 As1 O0.6,"[Element La, Element Fe, Element As, Element O]","{'La': 1.0, 'Fe': 1.0, 'As': 1.0, 'O': 0.6}",Fe-based,4
Pr1Fe1As1O0.6,44.0,Pr1 Fe1 As1 O0.6,"[Element Pr, Element Fe, Element As, Element O]","{'Pr': 1.0, 'Fe': 1.0, 'As': 1.0, 'O': 0.6}",Fe-based,4
Ba0.7K0.6Bi1O3,29.35,Ba0.7 K0.6 Bi1 O3,"[Element Ba, Element K, Element Bi, Element O]","{'Ba': 0.7, 'K': 0.6, 'Bi': 1.0, 'O': 3.0}",Other,4