chemical_formula,Tc,composition,elements,stoichiometry,Category,num_elements
Ba1Pb0.85Sb0.15O3,1.4,Ba1 Pb0.85 Sb0.15 O3,"[Element Ba, Element Pb, Element Sb, Element O]","{'Ba': 1.0, 'Pb': 0.85, 'Sb': 0.15, 'O': 3.0}",Other,4
Ba1Pb0.8Sb0.2O3,1.7,Ba1 Pb0.8 Sb0.2 O3,"[Element Ba, Element Pb, Element Sb, Element O]","{'Ba': 1.0, 'Pb': 0.8, 'Sb': 0.2, 'O': 3.0}",Other,4
Ba1Pb0.75Sb0.25O3,3.5,Ba1 Pb0.75 Sb0.25 O3,"[Element Ba, Element Pb, Element Sb, Element O]","{'Ba': 1.0, 'Pb': 0.75, 'Sb': 0.25, 'O': 3.0}",Other,4
Sr1.84Ba0.16Cu1O3.4,75.0,Sr1.84 Ba0.16 Cu1 O3.4,"[Element Sr, Element Ba, Element Cu, Element O]","{'Sr': 1.84, 'Ba': 0.16, 'Cu': 1.0, 'O': 3.4}",Cuprates,4
Sr1.68Ba0.32Cu1O3.4,88.0,Sr1.68 Ba0.32 Cu1 O3.4,"[Element Sr, Element Ba, Element Cu, Element O]","{'Sr': 1.68, 'Ba': 0.32, 'Cu': 1.0, 'O': 3.4}",Cuprates,4
Sr1.4Ba0.6Cu1O3.4,98.0,Sr1.4 Ba0.6 Cu1 O3.4,"[Element Sr, Element Ba, Element Cu, Element O]","{'Sr': 1.4, 'Ba': 0.6, 'Cu': 1.0, 'O': 3.4}",Cuprates,4
Sr2V1Fe1As1O2.9,40.0,Sr2 V1 Fe1 As1 O2.9,"[Element Sr, Element V, Element Fe, Element As, Element O]","{'Sr': 2.0, 'V': 1.0, 'Fe': 1.0, 'As': 1.0, 'O': 2.9}",Fe-based,5
Sr2V1Fe1As1O2.5,20.0,Sr2 V1 Fe1 As1 O2.5,"[Element Sr, Element V, Element Fe, Element As, Element O]","{'Sr': 2.0, 'V': 1.0, 'Fe': 1.0, 'As': 1.0, 'O': 2.5}",Fe-based,5
La3Rh4Sn13,3.1,La3 Rh4 Sn13,"[Element La, Element Rh, Element Sn]","{'La': 3.0, 'Rh': 4.0, 'Sn': 13.0}",Other,3
Tm5Rh4.8Co1.2Sn18,1.97,Tm5 Rh4.8 Co1.2 Sn18,"[Element Tm, Element Rh, Element Co, Element Sn]","{'Tm': 5.0, 'Rh': 4.8, 'Co': 1.2, 'Sn': 18.0}",Other,4
Tm5Rh3.6Co2.4Sn18,1.57,Tm5 Rh3.6 Co2.4 Sn18,"[Element Tm, Element Rh, Element Co, Element Sn]","{'Tm': 5.0, 'Rh': 3.6, 'Co': 2.4, 'Sn': 18.0}",Other,4
Tm5Rh2.4Co3.6Sn18,1.27,Tm5 Rh2.4 Co3.6 Sn18,"[Element Tm, Element Rh, Element Co, Element Sn]","{'Tm': 5.0, 'Rh': 2.4, 'Co': 3.6, 'Sn': 18.0}",Other,4
K0.8Fe2Se2,28.3,K0.8 Fe2 Se2,"[Element K, Element Fe, Element Se]","{'K': 0.8, 'Fe': 2.0, 'Se': 2.0}",Fe-based,3
Fe0.9Se0.25Te0.75,9.7,Fe0.9 Se0.25 Te0.75,"[Element Fe, Element Se, Element Te]","{'Fe': 0.9, 'Se': 0.25, 'Te': 0.75}",Fe-based,3
Fe0.95Se0.25Te0.75,8.5,Fe0.95 Se0.25 Te0.75,"[Element Fe, Element Se, Element Te]","{'Fe': 0.95, 'Se': 0.25, 'Te': 0.75}",Fe-based,3
Fe0.98Se0.25Te0.75,6.5,Fe0.98 Se0.25 Te0.75,"[Element Fe, Element Se, Element Te]","{'Fe': 0.98, 'Se': 0.25, 'Te': 0.75}",Fe-based,3
Ce1Co1In4.996Sn0.004,2.21,Ce1 Co1 In4.996 Sn0.004,"[Element Ce, Element Co, Element In, Element Sn]","{'Ce': 1.0, 'Co': 1.0, 'In': 4.996, 'Sn': 0.004}",Other,4
Sr0.6La0.4Fe2As2,20.5,Sr0.6 La0.4 Fe2 As2,"[Element Sr, Element La, Element Fe, Element As]","{'Sr': 0.6, 'La': 0.4, 'Fe': 2.0, 'As': 2.0}",Fe-based,4
Fe1Se0.98,8.21,Fe1 Se0.98,"[Element Fe, Element Se]","{'Fe': 1.0, 'Se': 0.98}",Fe-based,2
Sm1Fe1As1H0.3O0.6,51.4,Sm1 Fe1 As1 H0.3 O0.6,"[Element Sm, Element Fe, Element As, Element H, Element O]","{'Sm': 1.0, 'Fe': 1.0, 'As': 1.0, 'H': 0.3, 'O': 0.6}",Fe-based,5
Sm1Fe1As1H0.12O0.77,54.2,Sm1 Fe1 As1 H0.12 O0.77,"[Element Sm, Element Fe, Element As, Element H, Element O]","{'Sm': 1.0, 'Fe': 1.0, 'As': 1.0, 'H': 0.12, 'O': 0.77}",Fe-based,5
Sm1Fe1As1O0.8,40.1,Sm1 Fe1 As1 O0.8,"[Element Sm, Element Fe, Element As, Element O]","{'Sm': 1.0, 'Fe': 1.0, 'As': 1.0, 'O': 0.8}",Fe-based,4
Ba1Fe1.774Co0.226As2,12.8,Ba1 Fe1.774 Co0.226 As2,"[Element Ba, Element Fe, Element Co, Element As]","{'Ba': 1.0, 'Fe': 1.774, 'Co': 0.226, 'As': 2.0}",Fe-based,4
La1Fe1As1H0.6O0.6,35.0,La1 Fe1 As1 H0.6 O0.6,"[Element La, Element Fe, Element As, Element H, Element O]","{'La': 1.0, 'Fe': 1.0, 'As': 1.0, 'H': 0.6, 'O': 0.6}",Fe-based,5
Ce1Fe1As1H0.6O0.6,45.8,Ce1 Fe1 As1 H0.6 O0.6,"[Element Ce, Element Fe, Element As, Element H, Element O]","{'Ce': 1.0, 'Fe': 1.0, 'As': 1.0, 'H': 0.6, 'O': 0.6}",Fe-based,5
Pr1Fe1As1H0.6O0.6,49.7,Pr1 Fe1 As1 H0.6 O0.6,"[Element Pr, Element Fe, Element As, Element H, Element O]","{'Pr': 1.0, 'Fe': 1.0, 'As': 1.0, 'H': 0.6, 'O': 0.6}",Fe-based,5
Fe2As2Ca4Al1.34Ti0.66O6,12.5,Fe2 As2 Ca4 Al1.34 Ti0.66 O6,"[Element Fe, Element As, Element Ca, Element Al, Element Ti, Element O]","{'Fe': 2.0, 'As': 2.0, 'Ca': 4.0, 'Al': 1.34, 'Ti': 0.66, 'O': 6.0}",Fe-based,6
Fe2As2Ca5Al1.5Ti1.5O9,15.0,Fe2 As2 Ca5 Al1.5 Ti1.5 O9,"[Element Fe, Element As, Element Ca, Element Al, Element Ti, Element O]","{'Fe': 2.0, 'As': 2.0, 'Ca': 5.0, 'Al': 1.5, 'Ti': 1.5, 'O': 9.0}",Fe-based,6
Fe2As2Ca6Al1.32Ti2.68O12,36.0,Fe2 As2 Ca6 Al1.32 Ti2.68 O12,"[Element Fe, Element As, Element Ca, Element Al, Element Ti, Element O]","{'Fe': 2.0, 'As': 2.0, 'Ca': 6.0, 'Al': 1.32, 'Ti': 2.68, 'O': 12.0}",Fe-based,6
Fe2As2Ca4Sc2.01Ti0.99O7.5,31.0,Fe2 As2 Ca4 Sc2.01 Ti0.99 O7.5,"[Element Fe, Element As, Element Ca, Element Sc, Element Ti, Element O]","{'Fe': 2.0, 'As': 2.0, 'Ca': 4.0, 'Sc': 2.01, 'Ti': 0.99, 'O': 7.5}",Fe-based,6
Fe2As2Ca5Sc2Ti2O10,36.0,Fe2 As2 Ca5 Sc2 Ti2 O10,"[Element Fe, Element As, Element Ca, Element Sc, Element Ti, Element O]","{'Fe': 2.0, 'As': 2.0, 'Ca': 5.0, 'Sc': 2.0, 'Ti': 2.0, 'O': 10.0}",Fe-based,6
Fe2As2Ca4Sc2Ti3O13,36.0,Fe2 As2 Ca4 Sc2 Ti3 O13,"[Element Fe, Element As, Element Ca, Element Sc, Element Ti, Element O]","{'Fe': 2.0, 'As': 2.0, 'Ca': 4.0, 'Sc': 2.0, 'Ti': 3.0, 'O': 13.0}",Fe-based,6
La1.85Sr0.15Cu0.991Ni0.009O4,30.0,La1.85 Sr0.15 Cu0.991 Ni0.009 O4,"[Element La, Element Sr, Element Cu, Element Ni, Element O]","{'La': 1.85, 'Sr': 0.15, 'Cu': 0.991, 'Ni': 0.009, 'O': 4.0}",Cuprates,5
La1.85Sr0.15Cu0.982Ni0.018O4,22.5,La1.85 Sr0.15 Cu0.982 Ni0.018 O4,"[Element La, Element Sr, Element Cu, Element Ni, Element O]","{'La': 1.85, 'Sr': 0.15, 'Cu': 0.982, 'Ni': 0.018, 'O': 4.0}",Cuprates,5
La1.85Sr0.15Cu0.971Ni0.029O4,11.6,La1.85 Sr0.15 Cu0.971 Ni0.029 O4,"[Element La, Element Sr, Element Cu, Element Ni, Element O]","{'La': 1.85, 'Sr': 0.15, 'Cu': 0.971, 'Ni': 0.029, 'O': 4.0}",Cuprates,5
Sr1Ir2As2,2.8,Sr1 Ir2 As2,"[Element Sr, Element Ir, Element As]","{'Sr': 1.0, 'Ir': 2.0, 'As': 2.0}",Other,3
Li1Rh1B1.5,2.5,Li1 Rh1 B1.5,"[Element Li, Element Rh, Element B]","{'Li': 1.0, 'Rh': 1.0, 'B': 1.5}",Other,3
Li1.2Rh1B1.5,2.5,Li1.2 Rh1 B1.5,"[Element Li, Element Rh, Element B]","{'Li': 1.2, 'Rh': 1.0, 'B': 1.5}",Other,3
Fe1Te0.75S0.25,7.28,Fe1 Te0.75 S0.25,"[Element Fe, Element Te, Element S]","{'Fe': 1.0, 'Te': 0.75, 'S': 0.25}",Fe-based,3
In2Mo6Se6,2.85,In2 Mo6 Se6,"[Element In, Element Mo, Element Se]","{'In': 2.0, 'Mo': 6.0, 'Se': 6.0}",Other,3
Eu0.5Ca0.5Fe2As2,24.0,Eu0.5 Ca0.5 Fe2 As2,"[Element Eu, Element Ca, Element Fe, Element As]","{'Eu': 0.5, 'Ca': 0.5, 'Fe': 2.0, 'As': 2.0}",Fe-based,4
Eu1Fe1.715Co0.285As2,21.0,Eu1 Fe1.715 Co0.285 As2,"[Element Eu, Element Fe, Element Co, Element As]","{'Eu': 1.0, 'Fe': 1.715, 'Co': 0.285, 'As': 2.0}",Fe-based,4
Eu0.6Sr0.4Fe1.715Co0.285As2,13.9,Eu0.6 Sr0.4 Fe1.715 Co0.285 As2,"[Element Eu, Element Sr, Element Fe, Element Co, Element As]","{'Eu': 0.6, 'Sr': 0.4, 'Fe': 1.715, 'Co': 0.285, 'As': 2.0}",Fe-based,5
Eu0.7Sr0.3Fe1.715Co0.285As2,10.2,Eu0.7 Sr0.3 Fe1.715 Co0.285 As2,"[Element Eu, Element Sr, Element Fe, Element Co, Element As]","{'Eu': 0.7, 'Sr': 0.3, 'Fe': 1.715, 'Co': 0.285, 'As': 2.0}",Fe-based,5
La1Fe0.985Ru0.015As1F0.11O0.89,27.5,La1 Fe0.985 Ru0.015 As1 F0.11 O0.89,"[Element La, Element Fe, Element Ru, Element As, Element F, Element O]","{'La': 1.0, 'Fe': 0.985, 'Ru': 0.015, 'As': 1.0, 'F': 0.11, 'O': 0.89}",Fe-based,6
La1Fe0.97Ru0.03As1F0.11O0.89,25.6,La1 Fe0.97 Ru0.03 As1 F0.11 O0.89,"[Element La, Element Fe, Element Ru, Element As, Element F, Element O]","{'La': 1.0, 'Fe': 0.97, 'Ru': 0.03, 'As': 1.0, 'F': 0.11, 'O': 0.89}",Fe-based,6
La1Fe0.9Ru0.1As1F0.11O0.89,23.6,La1 Fe0.9 Ru0.1 As1 F0.11 O0.89,"[Element La, Element Fe, Element Ru, Element As, Element F, Element O]","{'La': 1.0, 'Fe': 0.9, 'Ru': 0.1, 'As': 1.0, 'F': 0.11, 'O': 0.89}",Fe-based,6
La1Fe0.85Ru0.15As1F0.11O0.89,23.6,La1 Fe0.85 Ru0.15 As1 F0.11 O0.89,"[Element La, Element Fe, Element Ru, Element As, Element F, Element O]","{'La': 1.0, 'Fe': 0.85, 'Ru': 0.15, 'As': 1.0, 'F': 0.11, 'O': 0.89}",Fe-based,6
La1Fe0.7Ru0.3As1F0.11O0.89,17.2,La1 Fe0.7 Ru0.3 As1 F0.11 O0.89,"[Element La, Element Fe, Element Ru, Element As, Element F, Element O]","{'La': 1.0, 'Fe': 0.7, 'Ru': 0.3, 'As': 1.0, 'F': 0.11, 'O': 0.89}",Fe-based,6
La1Fe1As1F0.13O0.87,25.4,La1 Fe1 As1 F0.13 O0.87,"[Element La, Element Fe, Element As, Element F, Element O]","{'La': 1.0, 'Fe': 1.0, 'As': 1.0, 'F': 0.13, 'O': 0.87}",Fe-based,5
La1Fe1As1F0.2O0.8,4.52,La1 Fe1 As1 F0.2 O0.8,"[Element La, Element Fe, Element As, Element F, Element O]","{'La': 1.0, 'Fe': 1.0, 'As': 1.0, 'F': 0.2, 'O': 0.8}",Fe-based,5
La1Fe1As1F0.18O0.82,14.3,La1 Fe1 As1 F0.18 O0.82,"[Element La, Element Fe, Element As, Element F, Element O]","{'La': 1.0, 'Fe': 1.0, 'As': 1.0, 'F': 0.18, 'O': 0.82}",Fe-based,5
Ca1Ir1Si3,3.6,Ca1 Ir1 Si3,"[Element Ca, Element Ir, Element Si]","{'Ca': 1.0, 'Ir': 1.0, 'Si': 3.0}",Other,3
Ca1Pt1Si3,2.3,Ca1 Pt1 Si3,"[Element Ca, Element Pt, Element Si]","{'Ca': 1.0, 'Pt': 1.0, 'Si': 3.0}",Other,3
Pr0.8Sr0.2Fe0.95Co0.05As1O1,7.05,Pr0.8 Sr0.2 Fe0.95 Co0.05 As1 O1,"[Element Pr, Element Sr, Element Fe, Element Co, Element As, Element O]","{'Pr': 0.8, 'Sr': 0.2, 'Fe': 0.95, 'Co': 0.05, 'As': 1.0, 'O': 1.0}",Fe-based,6
Pr0.8Sr0.2Fe0.925Co0.075As1O1,3.5,Pr0.8 Sr0.2 Fe0.925 Co0.075 As1 O1,"[Element Pr, Element Sr, Element Fe, Element Co, Element As, Element O]","{'Pr': 0.8, 'Sr': 0.2, 'Fe': 0.925, 'Co': 0.075, 'As': 1.0, 'O': 1.0}",Fe-based,6
Pr0.8Sr0.2Fe0.9Co0.1As1O1,6.86,Pr0.8 Sr0.2 Fe0.9 Co0.1 As1 O1,"[Element Pr, Element Sr, Element Fe, Element Co, Element As, Element O]","{'Pr': 0.8, 'Sr': 0.2, 'Fe': 0.9, 'Co': 0.1, 'As': 1.0, 'O': 1.0}",Fe-based,6
Pr0.8Sr0.2Fe0.85Co0.15As1O1,16.0,Pr0.8 Sr0.2 Fe0.85 Co0.15 As1 O1,"[Element Pr, Element Sr, Element Fe, Element Co, Element As, Element O]","{'Pr': 0.8, 'Sr': 0.2, 'Fe': 0.85, 'Co': 0.15, 'As': 1.0, 'O': 1.0}",Fe-based,6
Pr0.8Sr0.2Fe0.8Co0.2As1O1,11.5,Pr0.8 Sr0.2 Fe0.8 Co0.2 As1 O1,"[Element Pr, Element Sr, Element Fe, Element Co, Element As, Element O]","{'Pr': 0.8, 'Sr': 0.2, 'Fe': 0.8, 'Co': 0.2, 'As': 1.0, 'O': 1.0}",Fe-based,6
Pr0.8Sr0.2Fe0.7Co0.3As1O1,4.48,Pr0.8 Sr0.2 Fe0.7 Co0.3 As1 O1,"[Element Pr, Element Sr, Element Fe, Element Co, Element As, Element O]","{'Pr': 0.8, 'Sr': 0.2, 'Fe': 0.7, 'Co': 0.3, 'As': 1.0, 'O': 1.0}",Fe-based,6
Hg0.44Re1O3,7.7,Hg0.44 Re1 O3,"[Element Hg, Element Re, Element O]","{'Hg': 0.44, 'Re': 1.0, 'O': 3.0}",Other,3
Cs0.23W1O3,6.0,Cs0.23 W1 O3,"[Element Cs, Element W, Element O]","{'Cs': 0.23, 'W': 1.0, 'O': 3.0}",Other,3
Cs0.25W1O3,4.0,Cs0.25 W1 O3,"[Element Cs, Element W, Element O]","{'Cs': 0.25, 'W': 1.0, 'O': 3.0}",Other,3
Cs0.3W1O3,2.0,Cs0.3 W1 O3,"[Element Cs, Element W, Element O]","{'Cs': 0.3, 'W': 1.0, 'O': 3.0}",Other,3
Rb0.18W1O3,4.24,Rb0.18 W1 O3,"[Element Rb, Element W, Element O]","{'Rb': 0.18, 'W': 1.0, 'O': 3.0}",Other,3
La1Fe0.9975Mn0.0025As1F0.11O0.89,10.1,La1 Fe0.9975 Mn0.0025 As1 F0.11 O0.89,"[Element La, Element Fe, Element Mn, Element As, Element F, Element O]","{'La': 1.0, 'Fe': 0.9975, 'Mn': 0.0025, 'As': 1.0, 'F': 0.11, 'O': 0.89}",Fe-based,6
La1Fe0.95Co0.05As1F0.11O0.89,16.1,La1 Fe0.95 Co0.05 As1 F0.11 O0.89,"[Element La, Element Fe, Element Co, Element As, Element F, Element O]","{'La': 1.0, 'Fe': 0.95, 'Co': 0.05, 'As': 1.0, 'F': 0.11, 'O': 0.89}",Fe-based,6
U1.02Ni2Al3,0.51,U1.02 Ni2 Al3,"[Element U, Element Ni, Element Al]","{'U': 1.02, 'Ni': 2.0, 'Al': 3.0}",Other,3
U0.98Ni2Al3,1.145,U0.98 Ni2 Al3,"[Element U, Element Ni, Element Al]","{'U': 0.98, 'Ni': 2.0, 'Al': 3.0}",Other,3
U1Ni2.02Al3,1.14,U1 Ni2.02 Al3,"[Element U, Element Ni, Element Al]","{'U': 1.0, 'Ni': 2.02, 'Al': 3.0}",Other,3
U1Ni1.98Al3,1.13,U1 Ni1.98 Al3,"[Element U, Element Ni, Element Al]","{'U': 1.0, 'Ni': 1.98, 'Al': 3.0}",Other,3
U1Ni2Al3.02,1.135,U1 Ni2 Al3.02,"[Element U, Element Ni, Element Al]","{'U': 1.0, 'Ni': 2.0, 'Al': 3.02}",Other,3
U1Ni2Al2.98,1.155,U1 Ni2 Al2.98,"[Element U, Element Ni, Element Al]","{'U': 1.0, 'Ni': 2.0, 'Al': 2.98}",Other,3
U1Ni1.95Al3.05,0.16,U1 Ni1.95 Al3.05,"[Element U, Element Ni, Element Al]","{'U': 1.0, 'Ni': 1.95, 'Al': 3.05}",Other,3
Fe2As2Ca5Mg0.8Ti3.2O9.8,39.0,Fe2 As2 Ca5 Mg0.8 Ti3.2 O9.8,"[Element Fe, Element As, Element Ca, Element Mg, Element Ti, Element O]","{'Fe': 2.0, 'As': 2.0, 'Ca': 5.0, 'Mg': 0.8, 'Ti': 3.2, 'O': 9.8}",Fe-based,6
Fe2As2Ca4Mg0.75Ti2.25O7.5,43.0,Fe2 As2 Ca4 Mg0.75 Ti2.25 O7.5,"[Element Fe, Element As, Element Ca, Element Mg, Element Ti, Element O]","{'Fe': 2.0, 'As': 2.0, 'Ca': 4.0, 'Mg': 0.75, 'Ti': 2.25, 'O': 7.5}",Fe-based,6
Ni2P2Sr4Sc2O6,3.6,Ni2 P2 Sr4 Sc2 O6,"[Element Ni, Element P, Element Sr, Element Sc, Element O]","{'Ni': 2.0, 'P': 2.0, 'Sr': 4.0, 'Sc': 2.0, 'O': 6.0}",Other,5
Ni2As2Sr4Sc2O6,2.7,Ni2 As2 Sr4 Sc2 O6,"[Element Ni, Element As, Element Sr, Element Sc, Element O]","{'Ni': 2.0, 'As': 2.0, 'Sr': 4.0, 'Sc': 2.0, 'O': 6.0}",Other,5
Fe2As2Sr4Mg0.9Ti1.1O6,23.5,Fe2 As2 Sr4 Mg0.9 Ti1.1 O6,"[Element Fe, Element As, Element Sr, Element Mg, Element Ti, Element O]","{'Fe': 2.0, 'As': 2.0, 'Sr': 4.0, 'Mg': 0.9, 'Ti': 1.1, 'O': 6.0}",Fe-based,6
Fe2As2Sr4Mg0.8Ti1.2O6,26.0,Fe2 As2 Sr4 Mg0.8 Ti1.2 O6,"[Element Fe, Element As, Element Sr, Element Mg, Element Ti, Element O]","{'Fe': 2.0, 'As': 2.0, 'Sr': 4.0, 'Mg': 0.8, 'Ti': 1.2, 'O': 6.0}",Fe-based,6
Fe2As2Sr4Mg0.6Ti1.4O6,29.0,Fe2 As2 Sr4 Mg0.6 Ti1.4 O6,"[Element Fe, Element As, Element Sr, Element Mg, Element Ti, Element O]","{'Fe': 2.0, 'As': 2.0, 'Sr': 4.0, 'Mg': 0.6, 'Ti': 1.4, 'O': 6.0}",Fe-based,6
Fe2As2Sr4Mg0.4Ti1.6O6,28.0,Fe2 As2 Sr4 Mg0.4 Ti1.6 O6,"[Element Fe, Element As, Element Sr, Element Mg, Element Ti, Element O]","{'Fe': 2.0, 'As': 2.0, 'Sr': 4.0, 'Mg': 0.4, 'Ti': 1.6, 'O': 6.0}",Fe-based,6
Fe2As2Sr4Mg1Ti1O6,6.0,Fe2 As2 Sr4 Mg1 Ti1 O6,"[Element Fe, Element As, Element Sr, Element Mg, Element Ti, Element O]","{'Fe': 2.0, 'As': 2.0, 'Sr': 4.0, 'Mg': 1.0, 'Ti': 1.0, 'O': 6.0}",Fe-based,6
Fe1.9Co0.1As2Sr4Mg1Ti1O6,22.0,Fe1.9 Co0.1 As2 Sr4 Mg1 Ti1 O6,"[Element Fe, Element Co, Element As, Element Sr, Element Mg, Element Ti, Element O]","{'Fe': 1.9, 'Co': 0.1, 'As': 2.0, 'Sr': 4.0, 'Mg': 1.0, 'Ti': 1.0, 'O': 6.0}",Fe-based,7
Fe1.8Co0.2As2Sr4Mg1Ti1O6,24.0,Fe1.8 Co0.2 As2 Sr4 Mg1 Ti1 O6,"[Element Fe, Element Co, Element As, Element Sr, Element Mg, Element Ti, Element O]","{'Fe': 1.8, 'Co': 0.2, 'As': 2.0, 'Sr': 4.0, 'Mg': 1.0, 'Ti': 1.0, 'O': 6.0}",Fe-based,7
Fe1.7Co0.3As2Sr4Mg1Ti1O6,16.0,Fe1.7 Co0.3 As2 Sr4 Mg1 Ti1 O6,"[Element Fe, Element Co, Element As, Element Sr, Element Mg, Element Ti, Element O]","{'Fe': 1.7, 'Co': 0.3, 'As': 2.0, 'Sr': 4.0, 'Mg': 1.0, 'Ti': 1.0, 'O': 6.0}",Fe-based,7
Cu0.29Bi2Se3,3.2,Cu0.29 Bi2 Se3,"[Element Cu, Element Bi, Element Se]","{'Cu': 0.29, 'Bi': 2.0, 'Se': 3.0}",Other,3
Bi1Cu0.9S1O1,5.8,Bi1 Cu0.9 S1 O1,"[Element Bi, Element Cu, Element S, Element O]","{'Bi': 1.0, 'Cu': 0.9, 'S': 1.0, 'O': 1.0}",Cuprates,4
Eu1Fe2As1.7P0.3,21.0,Eu1 Fe2 As1.7 P0.3,"[Element Eu, Element Fe, Element As, Element P]","{'Eu': 1.0, 'Fe': 2.0, 'As': 1.7, 'P': 0.3}",Fe-based,4
Eu1Fe2As1.68P0.32,22.0,Eu1 Fe2 As1.68 P0.32,"[Element Eu, Element Fe, Element As, Element P]","{'Eu': 1.0, 'Fe': 2.0, 'As': 1.68, 'P': 0.32}",Fe-based,4
Eu1Fe2As1.6P0.4,29.0,Eu1 Fe2 As1.6 P0.4,"[Element Eu, Element Fe, Element As, Element P]","{'Eu': 1.0, 'Fe': 2.0, 'As': 1.6, 'P': 0.4}",Fe-based,4
Eu1Fe2As1.46P0.54,26.0,Eu1 Fe2 As1.46 P0.54,"[Element Eu, Element Fe, Element As, Element P]","{'Eu': 1.0, 'Fe': 2.0, 'As': 1.46, 'P': 0.54}",Fe-based,4
Rb0.88Fe1.81Se2,30.6,Rb0.88 Fe1.81 Se2,"[Element Rb, Element Fe, Element Se]","{'Rb': 0.88, 'Fe': 1.81, 'Se': 2.0}",Fe-based,3
K0.8Fe1.5Se2,32.4,K0.8 Fe1.5 Se2,"[Element K, Element Fe, Element Se]","{'K': 0.8, 'Fe': 1.5, 'Se': 2.0}",Fe-based,3
Cs0.8Fe2Se1.96,27.4,Cs0.8 Fe2 Se1.96,"[Element Cs, Element Fe, Element Se]","{'Cs': 0.8, 'Fe': 2.0, 'Se': 1.96}",Fe-based,3
K0.8Fe2Se1.96,29.5,K0.8 Fe2 Se1.96,"[Element K, Element Fe, Element Se]","{'K': 0.8, 'Fe': 2.0, 'Se': 1.96}",Fe-based,3
K0.86Fe2Se1.82,29.0,K0.86 Fe2 Se1.82,"[Element K, Element Fe, Element Se]","{'K': 0.86, 'Fe': 2.0, 'Se': 1.82}",Fe-based,3
Cs0.86Fe1.66Se2,25.5,Cs0.86 Fe1.66 Se2,"[Element Cs, Element Fe, Element Se]","{'Cs': 0.86, 'Fe': 1.66, 'Se': 2.0}",Fe-based,3
Eu1Fe1As1.64P0.36,28.0,Eu1 Fe1 As1.64 P0.36,"[Element Eu, Element Fe, Element As, Element P]","{'Eu': 1.0, 'Fe': 1.0, 'As': 1.64, 'P': 0.36}",Fe-based,4
Ca1Fe1.922Co0.078As2,21.2,Ca1 Fe1.922 Co0.078 As2,"[Element Ca, Element Fe, Element Co, Element As]","{'Ca': 1.0, 'Fe': 1.922, 'Co': 0.078, 'As': 2.0}",Fe-based,4
Ca1Fe1.874Co0.126As2,14.8,Ca1 Fe1.874 Co0.126 As2,"[Element Ca, Element Fe, Element Co, Element As]","{'Ca': 1.0, 'Fe': 1.874, 'Co': 0.126, 'As': 2.0}",Fe-based,4
Ca1Fe1.94Co0.06As2,15.5,Ca1 Fe1.94 Co0.06 As2,"[Element Ca, Element Fe, Element Co, Element As]","{'Ca': 1.0, 'Fe': 1.94, 'Co': 0.06, 'As': 2.0}",Fe-based,4
Ca1Fe1.9Co0.1As2,17.7,Ca1 Fe1.9 Co0.1 As2,"[Element Ca, Element Fe, Element Co, Element As]","{'Ca': 1.0, 'Fe': 1.9, 'Co': 0.1, 'As': 2.0}",Fe-based,4
Ca1Fe1.85Co0.15As2,15.2,Ca1 Fe1.85 Co0.15 As2,"[Element Ca, Element Fe, Element Co, Element As]","{'Ca': 1.0, 'Fe': 1.85, 'Co': 0.15, 'As': 2.0}",Fe-based,4
Ca1Fe1.82Co0.18As2,15.7,Ca1 Fe1.82 Co0.18 As2,"[Element Ca, Element Fe, Element Co, Element As]","{'Ca': 1.0, 'Fe': 1.82, 'Co': 0.18, 'As': 2.0}",Fe-based,4
Ca1Fe1.8Co0.2As2,17.1,Ca1 Fe1.8 Co0.2 As2,"[Element Ca, Element Fe, Element Co, Element As]","{'Ca': 1.0, 'Fe': 1.8, 'Co': 0.2, 'As': 2.0}",Fe-based,4
Ca1Fe1.75Co0.25As2,14.1,Ca1 Fe1.75 Co0.25 As2,"[Element Ca, Element Fe, Element Co, Element As]","{'Ca': 1.0, 'Fe': 1.75, 'Co': 0.25, 'As': 2.0}",Fe-based,4
Ca1Fe1.73Co0.27As2,12.0,Ca1 Fe1.73 Co0.27 As2,"[Element Ca, Element Fe, Element Co, Element As]","{'Ca': 1.0, 'Fe': 1.73, 'Co': 0.27, 'As': 2.0}",Fe-based,4
Ca1Fe1.7Co0.3As2,10.8,Ca1 Fe1.7 Co0.3 As2,"[Element Ca, Element Fe, Element Co, Element As]","{'Ca': 1.0, 'Fe': 1.7, 'Co': 0.3, 'As': 2.0}",Fe-based,4
Ca1Fe1.6Co0.4As2,2.0,Ca1 Fe1.6 Co0.4 As2,"[Element Ca, Element Fe, Element Co, Element As]","{'Ca': 1.0, 'Fe': 1.6, 'Co': 0.4, 'As': 2.0}",Fe-based,4
Sr1Fe1.916Co0.084As2,2.0,Sr1 Fe1.916 Co0.084 As2,"[Element Sr, Element Fe, Element Co, Element As]","{'Sr': 1.0, 'Fe': 1.916, 'Co': 0.084, 'As': 2.0}",Fe-based,4
Sr1Fe1.888Co0.112As2,2.0,Sr1 Fe1.888 Co0.112 As2,"[Element Sr, Element Fe, Element Co, Element As]","{'Sr': 1.0, 'Fe': 1.888, 'Co': 0.112, 'As': 2.0}",Fe-based,4
Sr1Fe1.86Co0.14As2,7.2,Sr1 Fe1.86 Co0.14 As2,"[Element Sr, Element Fe, Element Co, Element As]","{'Sr': 1.0, 'Fe': 1.86, 'Co': 0.14, 'As': 2.0}",Fe-based,4
Sr1Fe1.826Co0.174As2,9.5,Sr1 Fe1.826 Co0.174 As2,"[Element Sr, Element Fe, Element Co, Element As]","{'Sr': 1.0, 'Fe': 1.826, 'Co': 0.174, 'As': 2.0}",Fe-based,4
Sr1Fe1.816Co0.184As2,13.4,Sr1 Fe1.816 Co0.184 As2,"[Element Sr, Element Fe, Element Co, Element As]","{'Sr': 1.0, 'Fe': 1.816, 'Co': 0.184, 'As': 2.0}",Fe-based,4
Sr1Fe1.792Co0.208As2,13.9,Sr1 Fe1.792 Co0.208 As2,"[Element Sr, Element Fe, Element Co, Element As]","{'Sr': 1.0, 'Fe': 1.792, 'Co': 0.208, 'As': 2.0}",Fe-based,4
Sr1Fe1.766Co0.234As2,14.4,Sr1 Fe1.766 Co0.234 As2,"[Element Sr, Element Fe, Element Co, Element As]","{'Sr': 1.0, 'Fe': 1.766, 'Co': 0.234, 'As': 2.0}",Fe-based,4
Sr1Fe1.752Co0.248As2,13.2,Sr1 Fe1.752 Co0.248 As2,"[Element Sr, Element Fe, Element Co, Element As]","{'Sr': 1.0, 'Fe': 1.752, 'Co': 0.248, 'As': 2.0}",Fe-based,4
Sr1Fe1.732Co0.268As2,11.0,Sr1 Fe1.732 Co0.268 As2,"[Element Sr, Element Fe, Element Co, Element As]","{'Sr': 1.0, 'Fe': 1.732, 'Co': 0.268, 'As': 2.0}",Fe-based,4
Sr1Fe1.66Co0.34As2,5.56,Sr1 Fe1.66 Co0.34 As2,"[Element Sr, Element Fe, Element Co, Element As]","{'Sr': 1.0, 'Fe': 1.66, 'Co': 0.34, 'As': 2.0}",Fe-based,4
Sr1Fe1.76Co0.24As2,13.5,Sr1 Fe1.76 Co0.24 As2,"[Element Sr, Element Fe, Element Co, Element As]","{'Sr': 1.0, 'Fe': 1.76, 'Co': 0.24, 'As': 2.0}",Fe-based,4