chemical_formula,Tc,composition,elements,stoichiometry,Category,num_elements
La0.84Tm0.16Ru3Si2,6.1,La0.84 Tm0.16 Ru3 Si2,"[Element La, Element Tm, Element Ru, Element Si]","{'La': 0.84, 'Tm': 0.16, 'Ru': 3.0, 'Si': 2.0}",Other,4
Ce1Ru3Si2,1.25,Ce1 Ru3 Si2,"[Element Ce, Element Ru, Element Si]","{'Ce': 1.0, 'Ru': 3.0, 'Si': 2.0}",Other,3
La1In2.25Sn0.75,0.75,La1 In2.25 Sn0.75,"[Element La, Element In, Element Sn]","{'La': 1.0, 'In': 2.25, 'Sn': 0.75}",Other,3
La1In1.5Sn1.5,1.19,La1 In1.5 Sn1.5,"[Element La, Element In, Element Sn]","{'La': 1.0, 'In': 1.5, 'Sn': 1.5}",Other,3
La1In0.75Sn2.25,0.67,La1 In0.75 Sn2.25,"[Element La, Element In, Element Sn]","{'La': 1.0, 'In': 0.75, 'Sn': 2.25}",Other,3
La0.87Th0.13Sn3,6.26,La0.87 Th0.13 Sn3,"[Element La, Element Th, Element Sn]","{'La': 0.87, 'Th': 0.13, 'Sn': 3.0}",Other,3
La0.5Th0.5Sn3,4.67,La0.5 Th0.5 Sn3,"[Element La, Element Th, Element Sn]","{'La': 0.5, 'Th': 0.5, 'Sn': 3.0}",Other,3
La0.25Th0.75Sn3,3.94,La0.25 Th0.75 Sn3,"[Element La, Element Th, Element Sn]","{'La': 0.25, 'Th': 0.75, 'Sn': 3.0}",Other,3
La1Tl2.19Pb0.81,1.37,La1 Tl2.19 Pb0.81,"[Element La, Element Tl, Element Pb]","{'La': 1.0, 'Tl': 2.19, 'Pb': 0.81}",Other,3
La1Tl1.5Pb1.5,1.75,La1 Tl1.5 Pb1.5,"[Element La, Element Tl, Element Pb]","{'La': 1.0, 'Tl': 1.5, 'Pb': 1.5}",Other,3
La1Tl0.24Pb2.76,4.46,La1 Tl0.24 Pb2.76,"[Element La, Element Tl, Element Pb]","{'La': 1.0, 'Tl': 0.24, 'Pb': 2.76}",Other,3
La0.76Th0.24Pb3,1.46,La0.76 Th0.24 Pb3,"[Element La, Element Th, Element Pb]","{'La': 0.76, 'Th': 0.24, 'Pb': 3.0}",Other,3
La0.23Th0.77Pb3,2.61,La0.23 Th0.77 Pb3,"[Element La, Element Th, Element Pb]","{'La': 0.23, 'Th': 0.77, 'Pb': 3.0}",Other,3
La0.06Th0.94Pb3,5.58,La0.06 Th0.94 Pb3,"[Element La, Element Th, Element Pb]","{'La': 0.06, 'Th': 0.94, 'Pb': 3.0}",Other,3
La1Tl2.25Sn0.75,1.05,La1 Tl2.25 Sn0.75,"[Element La, Element Tl, Element Sn]","{'La': 1.0, 'Tl': 2.25, 'Sn': 0.75}",Other,3
La1Tl1.5Sn1.5,1.5,La1 Tl1.5 Sn1.5,"[Element La, Element Tl, Element Sn]","{'La': 1.0, 'Tl': 1.5, 'Sn': 1.5}",Other,3
La1Tl0.75Sn2.25,1.19,La1 Tl0.75 Sn2.25,"[Element La, Element Tl, Element Sn]","{'La': 1.0, 'Tl': 0.75, 'Sn': 2.25}",Other,3
Th1In2.25Sn0.75,0.21,Th1 In2.25 Sn0.75,"[Element Th, Element In, Element Sn]","{'Th': 1.0, 'In': 2.25, 'Sn': 0.75}",Other,3
Th1In1.5Sn1.5,1.03,Th1 In1.5 Sn1.5,"[Element Th, Element In, Element Sn]","{'Th': 1.0, 'In': 1.5, 'Sn': 1.5}",Other,3
Th1In0.75Sn2.25,3.36,Th1 In0.75 Sn2.25,"[Element Th, Element In, Element Sn]","{'Th': 1.0, 'In': 0.75, 'Sn': 2.25}",Other,3
Ca1Tl2.4Pb0.6,3.18,Ca1 Tl2.4 Pb0.6,"[Element Ca, Element Tl, Element Pb]","{'Ca': 1.0, 'Tl': 2.4, 'Pb': 0.6}",Other,3
Ca1Tl1.8Pb1.2,2.8,Ca1 Tl1.8 Pb1.2,"[Element Ca, Element Tl, Element Pb]","{'Ca': 1.0, 'Tl': 1.8, 'Pb': 1.2}",Other,3
Ca1Tl0.75Pb2.25,3.68,Ca1 Tl0.75 Pb2.25,"[Element Ca, Element Tl, Element Pb]","{'Ca': 1.0, 'Tl': 0.75, 'Pb': 2.25}",Other,3
La1Pb2.25Sn0.75,1.11,La1 Pb2.25 Sn0.75,"[Element La, Element Pb, Element Sn]","{'La': 1.0, 'Pb': 2.25, 'Sn': 0.75}",Other,3
La1Pb1.5Sn1.5,1.18,La1 Pb1.5 Sn1.5,"[Element La, Element Pb, Element Sn]","{'La': 1.0, 'Pb': 1.5, 'Sn': 1.5}",Other,3
La1Pb0.75Sn2.25,2.54,La1 Pb0.75 Sn2.25,"[Element La, Element Pb, Element Sn]","{'La': 1.0, 'Pb': 0.75, 'Sn': 2.25}",Other,3
Ba8Si43Ge3,7.1,Ba8 Si43 Ge3,"[Element Ba, Element Si, Element Ge]","{'Ba': 8.0, 'Si': 43.0, 'Ge': 3.0}",Other,3
Ba8Si40Ge6,6.0,Ba8 Si40 Ge6,"[Element Ba, Element Si, Element Ge]","{'Ba': 8.0, 'Si': 40.0, 'Ge': 6.0}",Other,3
Ba8Si37Ge9,5.0,Ba8 Si37 Ge9,"[Element Ba, Element Si, Element Ge]","{'Ba': 8.0, 'Si': 37.0, 'Ge': 9.0}",Other,3
Ba8Si34Ge12,4.0,Ba8 Si34 Ge12,"[Element Ba, Element Si, Element Ge]","{'Ba': 8.0, 'Si': 34.0, 'Ge': 12.0}",Other,3
Ba8Si31Ge15,3.91,Ba8 Si31 Ge15,"[Element Ba, Element Si, Element Ge]","{'Ba': 8.0, 'Si': 31.0, 'Ge': 15.0}",Other,3
Ba8Si28Ge18,3.12,Ba8 Si28 Ge18,"[Element Ba, Element Si, Element Ge]","{'Ba': 8.0, 'Si': 28.0, 'Ge': 18.0}",Other,3
Ba8Si25Ge21,2.8,Ba8 Si25 Ge21,"[Element Ba, Element Si, Element Ge]","{'Ba': 8.0, 'Si': 25.0, 'Ge': 21.0}",Other,3
Ba8Si23Ge23,2.28,Ba8 Si23 Ge23,"[Element Ba, Element Si, Element Ge]","{'Ba': 8.0, 'Si': 23.0, 'Ge': 23.0}",Other,3
Na0.18Hf1N1Cl1,22.0,Na0.18 Hf1 N1 Cl1,"[Element Na, Element Hf, Element N, Element Cl]","{'Na': 0.18, 'Hf': 1.0, 'N': 1.0, 'Cl': 1.0}",Other,4
Na0.29Hf1N1Cl1,19.0,Na0.29 Hf1 N1 Cl1,"[Element Na, Element Hf, Element N, Element Cl]","{'Na': 0.29, 'Hf': 1.0, 'N': 1.0, 'Cl': 1.0}",Other,4
Na0.8Hf1N1Cl1,19.0,Na0.8 Hf1 N1 Cl1,"[Element Na, Element Hf, Element N, Element Cl]","{'Na': 0.8, 'Hf': 1.0, 'N': 1.0, 'Cl': 1.0}",Other,4
Cs1I1,2.0,Cs1 I1,"[Element Cs, Element I]","{'Cs': 1.0, 'I': 1.0}",Other,2
Mg1B1.9906C0.0094,38.5,Mg1 B1.9906 C0.0094,"[Element Mg, Element B, Element C]","{'Mg': 1.0, 'B': 1.9906, 'C': 0.0094}",Other,3
Mg1B1.958C0.042,37.9,Mg1 B1.958 C0.042,"[Element Mg, Element B, Element C]","{'Mg': 1.0, 'B': 1.958, 'C': 0.042}",Other,3
Ho0.15Lu0.85Ni2B2C1,15.1,Ho0.15 Lu0.85 Ni2 B2 C1,"[Element Ho, Element Lu, Element Ni, Element B, Element C]","{'Ho': 0.15, 'Lu': 0.85, 'Ni': 2.0, 'B': 2.0, 'C': 1.0}",Other,5
Ho0.3Lu0.7Ni2B2C1,13.3,Ho0.3 Lu0.7 Ni2 B2 C1,"[Element Ho, Element Lu, Element Ni, Element B, Element C]","{'Ho': 0.3, 'Lu': 0.7, 'Ni': 2.0, 'B': 2.0, 'C': 1.0}",Other,5
Ho0.45Lu0.55Ni2B2C1,10.0,Ho0.45 Lu0.55 Ni2 B2 C1,"[Element Ho, Element Lu, Element Ni, Element B, Element C]","{'Ho': 0.45, 'Lu': 0.55, 'Ni': 2.0, 'B': 2.0, 'C': 1.0}",Other,5
Ho0.6Lu0.4Ni2B2C1,9.82,Ho0.6 Lu0.4 Ni2 B2 C1,"[Element Ho, Element Lu, Element Ni, Element B, Element C]","{'Ho': 0.6, 'Lu': 0.4, 'Ni': 2.0, 'B': 2.0, 'C': 1.0}",Other,5
Ho0.7Lu0.3Ni2B2C1,8.72,Ho0.7 Lu0.3 Ni2 B2 C1,"[Element Ho, Element Lu, Element Ni, Element B, Element C]","{'Ho': 0.7, 'Lu': 0.3, 'Ni': 2.0, 'B': 2.0, 'C': 1.0}",Other,5
Ho0.75Lu0.25Ni2B2C1,8.81,Ho0.75 Lu0.25 Ni2 B2 C1,"[Element Ho, Element Lu, Element Ni, Element B, Element C]","{'Ho': 0.75, 'Lu': 0.25, 'Ni': 2.0, 'B': 2.0, 'C': 1.0}",Other,5
Ho0.8Lu0.2Ni2B2C1,8.77,Ho0.8 Lu0.2 Ni2 B2 C1,"[Element Ho, Element Lu, Element Ni, Element B, Element C]","{'Ho': 0.8, 'Lu': 0.2, 'Ni': 2.0, 'B': 2.0, 'C': 1.0}",Other,5
Ho0.85Lu0.15Ni2B2C1,8.72,Ho0.85 Lu0.15 Ni2 B2 C1,"[Element Ho, Element Lu, Element Ni, Element B, Element C]","{'Ho': 0.85, 'Lu': 0.15, 'Ni': 2.0, 'B': 2.0, 'C': 1.0}",Other,5
Ho0.9Lu0.1Ni2B2C1,8.77,Ho0.9 Lu0.1 Ni2 B2 C1,"[Element Ho, Element Lu, Element Ni, Element B, Element C]","{'Ho': 0.9, 'Lu': 0.1, 'Ni': 2.0, 'B': 2.0, 'C': 1.0}",Other,5
Ho0.95Lu0.05Ni2B2C1,8.77,Ho0.95 Lu0.05 Ni2 B2 C1,"[Element Ho, Element Lu, Element Ni, Element B, Element C]","{'Ho': 0.95, 'Lu': 0.05, 'Ni': 2.0, 'B': 2.0, 'C': 1.0}",Other,5
Ca1Al0.9Ga0.1Si1,6.54,Ca1 Al0.9 Ga0.1 Si1,"[Element Ca, Element Al, Element Ga, Element Si]","{'Ca': 1.0, 'Al': 0.9, 'Ga': 0.1, 'Si': 1.0}",Other,4
Ca1Al0.8Ga0.2Si1,5.6,Ca1 Al0.8 Ga0.2 Si1,"[Element Ca, Element Al, Element Ga, Element Si]","{'Ca': 1.0, 'Al': 0.8, 'Ga': 0.2, 'Si': 1.0}",Other,4
Ca1Al0.7Ga0.3Si1,4.78,Ca1 Al0.7 Ga0.3 Si1,"[Element Ca, Element Al, Element Ga, Element Si]","{'Ca': 1.0, 'Al': 0.7, 'Ga': 0.3, 'Si': 1.0}",Other,4
Ca1Al0.6Ga0.4Si1,4.51,Ca1 Al0.6 Ga0.4 Si1,"[Element Ca, Element Al, Element Ga, Element Si]","{'Ca': 1.0, 'Al': 0.6, 'Ga': 0.4, 'Si': 1.0}",Other,4
Ca1Al0.5Ga0.5Si1,3.73,Ca1 Al0.5 Ga0.5 Si1,"[Element Ca, Element Al, Element Ga, Element Si]","{'Ca': 1.0, 'Al': 0.5, 'Ga': 0.5, 'Si': 1.0}",Other,4
Ca1Al0.4Ga0.6Si1,3.45,Ca1 Al0.4 Ga0.6 Si1,"[Element Ca, Element Al, Element Ga, Element Si]","{'Ca': 1.0, 'Al': 0.4, 'Ga': 0.6, 'Si': 1.0}",Other,4
Ca1Al0.3Ga0.7Si1,3.0,Ca1 Al0.3 Ga0.7 Si1,"[Element Ca, Element Al, Element Ga, Element Si]","{'Ca': 1.0, 'Al': 0.3, 'Ga': 0.7, 'Si': 1.0}",Other,4
Ca1Al0.2Ga0.8Si1,3.24,Ca1 Al0.2 Ga0.8 Si1,"[Element Ca, Element Al, Element Ga, Element Si]","{'Ca': 1.0, 'Al': 0.2, 'Ga': 0.8, 'Si': 1.0}",Other,4
Ca1Al0.1Ga0.9Si1,3.34,Ca1 Al0.1 Ga0.9 Si1,"[Element Ca, Element Al, Element Ga, Element Si]","{'Ca': 1.0, 'Al': 0.1, 'Ga': 0.9, 'Si': 1.0}",Other,4
La1Rh4Si2B1,8.0,La1 Rh4 Si2 B1,"[Element La, Element Rh, Element Si, Element B]","{'La': 1.0, 'Rh': 4.0, 'Si': 2.0, 'B': 1.0}",Other,4
Ce1Rh0.65Ir0.35In5,0.22,Ce1 Rh0.65 Ir0.35 In5,"[Element Ce, Element Rh, Element Ir, Element In]","{'Ce': 1.0, 'Rh': 0.65, 'Ir': 0.35, 'In': 5.0}",Other,4
Ce1Rh0.55Ir0.45In5,0.94,Ce1 Rh0.55 Ir0.45 In5,"[Element Ce, Element Rh, Element Ir, Element In]","{'Ce': 1.0, 'Rh': 0.55, 'Ir': 0.45, 'In': 5.0}",Other,4
Ce1Rh0.45Ir0.55In5,0.82,Ce1 Rh0.45 Ir0.55 In5,"[Element Ce, Element Rh, Element Ir, Element In]","{'Ce': 1.0, 'Rh': 0.45, 'Ir': 0.55, 'In': 5.0}",Other,4
Cu1.2Rh1.8S4,5.08,Cu1.2 Rh1.8 S4,"[Element Cu, Element Rh, Element S]","{'Cu': 1.2, 'Rh': 1.8, 'S': 4.0}",Other,3
Cu1Co2S4,4.0,Cu1 Co2 S4,"[Element Cu, Element Co, Element S]","{'Cu': 1.0, 'Co': 2.0, 'S': 4.0}",Other,3
Cu1.75Co1.25S4,2.2,Cu1.75 Co1.25 S4,"[Element Cu, Element Co, Element S]","{'Cu': 1.75, 'Co': 1.25, 'S': 4.0}",Other,3
B2.32Nb1,9.8,B2.32 Nb1,"[Element B, Element Nb]","{'B': 2.32, 'Nb': 1.0}",Other,2
B2.26Nb1,9.2,B2.26 Nb1,"[Element B, Element Nb]","{'B': 2.26, 'Nb': 1.0}",Other,2
La1Rh1Al1,2.4,La1 Rh1 Al1,"[Element La, Element Rh, Element Al]","{'La': 1.0, 'Rh': 1.0, 'Al': 1.0}",Other,3
Nb1B0.2Rh3,6.4,Nb1 B0.2 Rh3,"[Element Nb, Element B, Element Rh]","{'Nb': 1.0, 'B': 0.2, 'Rh': 3.0}",Other,3
Be0.99Re0.01,9.25,Be0.99 Re0.01,"[Element Be, Element Re]","{'Be': 0.99, 'Re': 0.01}",Other,2
Be22Re0.99Ru0.01,9.2,Be22 Re0.99 Ru0.01,"[Element Be, Element Re, Element Ru]","{'Be': 22.0, 'Re': 0.99, 'Ru': 0.01}",Other,3
Ga0.255V0.745,13.9,Ga0.255 V0.745,"[Element Ga, Element V]","{'Ga': 0.255, 'V': 0.745}",Other,2
Ga0.247V0.753,13.8,Ga0.247 V0.753,"[Element Ga, Element V]","{'Ga': 0.247, 'V': 0.753}",Other,2
Ga0.233V0.767,13.3,Ga0.233 V0.767,"[Element Ga, Element V]","{'Ga': 0.233, 'V': 0.767}",Other,2
V0.745Ga0.228Al0.027,13.05,V0.745 Ga0.228 Al0.027,"[Element V, Element Ga, Element Al]","{'V': 0.745, 'Ga': 0.228, 'Al': 0.027}",Other,3
V0.737Ga0.213Al0.05,12.6,V0.737 Ga0.213 Al0.05,"[Element V, Element Ga, Element Al]","{'V': 0.737, 'Ga': 0.213, 'Al': 0.05}",Other,3
V0.741Ga0.196Al0.063,12.2,V0.741 Ga0.196 Al0.063,"[Element V, Element Ga, Element Al]","{'V': 0.741, 'Ga': 0.196, 'Al': 0.063}",Other,3
V0.741Ga0.152Al0.107,11.4,V0.741 Ga0.152 Al0.107,"[Element V, Element Ga, Element Al]","{'V': 0.741, 'Ga': 0.152, 'Al': 0.107}",Other,3
V0.747Ga0.131Al0.122,11.7,V0.747 Ga0.131 Al0.122,"[Element V, Element Ga, Element Al]","{'V': 0.747, 'Ga': 0.131, 'Al': 0.122}",Other,3
V0.767Ga0.086Al0.147,12.1,V0.767 Ga0.086 Al0.147,"[Element V, Element Ga, Element Al]","{'V': 0.767, 'Ga': 0.086, 'Al': 0.147}",Other,3
V0.784Ga0.172Al0.044,9.4,V0.784 Ga0.172 Al0.044,"[Element V, Element Ga, Element Al]","{'V': 0.784, 'Ga': 0.172, 'Al': 0.044}",Other,3
V0.767Ga0.18Al0.053,11.5,V0.767 Ga0.18 Al0.053,"[Element V, Element Ga, Element Al]","{'V': 0.767, 'Ga': 0.18, 'Al': 0.053}",Other,3
V0.725Ga0.203Al0.072,12.3,V0.725 Ga0.203 Al0.072,"[Element V, Element Ga, Element Al]","{'V': 0.725, 'Ga': 0.203, 'Al': 0.072}",Other,3
V0.683Ga0.22Al0.097,9.4,V0.683 Ga0.22 Al0.097,"[Element V, Element Ga, Element Al]","{'V': 0.683, 'Ga': 0.22, 'Al': 0.097}",Other,3
V0.783Ga0.138Al0.079,10.2,V0.783 Ga0.138 Al0.079,"[Element V, Element Ga, Element Al]","{'V': 0.783, 'Ga': 0.138, 'Al': 0.079}",Other,3
V0.709Ga0.151Al0.14,9.0,V0.709 Ga0.151 Al0.14,"[Element V, Element Ga, Element Al]","{'V': 0.709, 'Ga': 0.151, 'Al': 0.14}",Other,3
V0.767Ga0.214Al0.022,12.1,V0.767 Ga0.214 Al0.022,"[Element V, Element Ga, Element Al]","{'V': 0.767, 'Ga': 0.214, 'Al': 0.022}",Other,3
V0.743Ga0.181Al0.076,12.0,V0.743 Ga0.181 Al0.076,"[Element V, Element Ga, Element Al]","{'V': 0.743, 'Ga': 0.181, 'Al': 0.076}",Other,3
V0.746Ga0.169Al0.085,11.8,V0.746 Ga0.169 Al0.085,"[Element V, Element Ga, Element Al]","{'V': 0.746, 'Ga': 0.169, 'Al': 0.085}",Other,3
Al0.25V0.75,16.9,Al0.25 V0.75,"[Element Al, Element V]","{'Al': 0.25, 'V': 0.75}",Other,2
V0.75Si0.225Al0.025,13.5,V0.75 Si0.225 Al0.025,"[Element V, Element Si, Element Al]","{'V': 0.75, 'Si': 0.225, 'Al': 0.025}",Other,3
V0.75Si0.22Al0.03,13.3,V0.75 Si0.22 Al0.03,"[Element V, Element Si, Element Al]","{'V': 0.75, 'Si': 0.22, 'Al': 0.03}",Other,3
V0.75Si0.2125Al0.0375,12.6,V0.75 Si0.2125 Al0.0375,"[Element V, Element Si, Element Al]","{'V': 0.75, 'Si': 0.2125, 'Al': 0.0375}",Other,3
V0.77Si0.21Al0.02,11.7,V0.77 Si0.21 Al0.02,"[Element V, Element Si, Element Al]","{'V': 0.77, 'Si': 0.21, 'Al': 0.02}",Other,3
V0.75Si0.2Al0.05,11.8,V0.75 Si0.2 Al0.05,"[Element V, Element Si, Element Al]","{'V': 0.75, 'Si': 0.2, 'Al': 0.05}",Other,3
V0.75Si0.175Al0.075,11.1,V0.75 Si0.175 Al0.075,"[Element V, Element Si, Element Al]","{'V': 0.75, 'Si': 0.175, 'Al': 0.075}",Other,3
V0.75Si0.125Al0.125,10.4,V0.75 Si0.125 Al0.125,"[Element V, Element Si, Element Al]","{'V': 0.75, 'Si': 0.125, 'Al': 0.125}",Other,3
V0.75Si0.025Al0.225,9.8,V0.75 Si0.025 Al0.225,"[Element V, Element Si, Element Al]","{'V': 0.75, 'Si': 0.025, 'Al': 0.225}",Other,3
V0.72Si0.17Al0.11,10.3,V0.72 Si0.17 Al0.11,"[Element V, Element Si, Element Al]","{'V': 0.72, 'Si': 0.17, 'Al': 0.11}",Other,3
V0.65Si0.1Al0.25,9.9,V0.65 Si0.1 Al0.25,"[Element V, Element Si, Element Al]","{'V': 0.65, 'Si': 0.1, 'Al': 0.25}",Other,3
V0.73Si0.25Al0.02,14.0,V0.73 Si0.25 Al0.02,"[Element V, Element Si, Element Al]","{'V': 0.73, 'Si': 0.25, 'Al': 0.02}",Other,3
V0.73Si0.23Al0.04,10.4,V0.73 Si0.23 Al0.04,"[Element V, Element Si, Element Al]","{'V': 0.73, 'Si': 0.23, 'Al': 0.04}",Other,3
V0.7Si0.2Al0.1,10.6,V0.7 Si0.2 Al0.1,"[Element V, Element Si, Element Al]","{'V': 0.7, 'Si': 0.2, 'Al': 0.1}",Other,3
V0.63Si0.14Al0.23,9.7,V0.63 Si0.14 Al0.23,"[Element V, Element Si, Element Al]","{'V': 0.63, 'Si': 0.14, 'Al': 0.23}",Other,3
Ge0.27V0.73,6.6,Ge0.27 V0.73,"[Element Ge, Element V]","{'Ge': 0.27, 'V': 0.73}",Other,2
Ge0.25V0.75,6.5,Ge0.25 V0.75,"[Element Ge, Element V]","{'Ge': 0.25, 'V': 0.75}",Other,2
Ge0.23V0.77,6.4,Ge0.23 V0.77,"[Element Ge, Element V]","{'Ge': 0.23, 'V': 0.77}",Other,2
Ge0.21V0.79,6.4,Ge0.21 V0.79,"[Element Ge, Element V]","{'Ge': 0.21, 'V': 0.79}",Other,2
V0.75Ge0.2375Al0.0125,7.6,V0.75 Ge0.2375 Al0.0125,"[Element V, Element Ge, Element Al]","{'V': 0.75, 'Ge': 0.2375, 'Al': 0.0125}",Other,3
V0.75Ge0.225Al0.025,8.6,V0.75 Ge0.225 Al0.025,"[Element V, Element Ge, Element Al]","{'V': 0.75, 'Ge': 0.225, 'Al': 0.025}",Other,3
V0.75Ge0.2125Al0.0375,8.9,V0.75 Ge0.2125 Al0.0375,"[Element V, Element Ge, Element Al]","{'V': 0.75, 'Ge': 0.2125, 'Al': 0.0375}",Other,3
V0.75Ge0.2Al0.05,10.3,V0.75 Ge0.2 Al0.05,"[Element V, Element Ge, Element Al]","{'V': 0.75, 'Ge': 0.2, 'Al': 0.05}",Other,3
V0.75Ge0.1875Al0.0625,11.4,V0.75 Ge0.1875 Al0.0625,"[Element V, Element Ge, Element Al]","{'V': 0.75, 'Ge': 0.1875, 'Al': 0.0625}",Other,3
V0.75Ge0.175Al0.075,10.8,V0.75 Ge0.175 Al0.075,"[Element V, Element Ge, Element Al]","{'V': 0.75, 'Ge': 0.175, 'Al': 0.075}",Other,3
V0.75Ge0.15Al0.1,11.7,V0.75 Ge0.15 Al0.1,"[Element V, Element Ge, Element Al]","{'V': 0.75, 'Ge': 0.15, 'Al': 0.1}",Other,3
V0.75Ge0.13Al0.12,11.3,V0.75 Ge0.13 Al0.12,"[Element V, Element Ge, Element Al]","{'V': 0.75, 'Ge': 0.13, 'Al': 0.12}",Other,3
V0.75Ge0.025Al0.225,11.2,V0.75 Ge0.025 Al0.225,"[Element V, Element Ge, Element Al]","{'V': 0.75, 'Ge': 0.025, 'Al': 0.225}",Other,3
V0.65Ge0.1Al0.25,7.0,V0.65 Ge0.1 Al0.25,"[Element V, Element Ge, Element Al]","{'V': 0.65, 'Ge': 0.1, 'Al': 0.25}",Other,3
V0.55Ge0.1Al0.35,5.4,V0.55 Ge0.1 Al0.35,"[Element V, Element Ge, Element Al]","{'V': 0.55, 'Ge': 0.1, 'Al': 0.35}",Other,3
V0.65Ge0.15Al0.2,5.5,V0.65 Ge0.15 Al0.2,"[Element V, Element Ge, Element Al]","{'V': 0.65, 'Ge': 0.15, 'Al': 0.2}",Other,3
V0.65Ge0.25Al0.1,5.5,V0.65 Ge0.25 Al0.1,"[Element V, Element Ge, Element Al]","{'V': 0.65, 'Ge': 0.25, 'Al': 0.1}",Other,3
V0.745Sb0.208Al0.025,2.0,V0.745 Sb0.208 Al0.025,"[Element V, Element Sb, Element Al]","{'V': 0.745, 'Sb': 0.208, 'Al': 0.025}",Other,3
V0.751Sb0.208Al0.041,3.4,V0.751 Sb0.208 Al0.041,"[Element V, Element Sb, Element Al]","{'V': 0.751, 'Sb': 0.208, 'Al': 0.041}",Other,3
V0.746Sb0.179Al0.075,4.3,V0.746 Sb0.179 Al0.075,"[Element V, Element Sb, Element Al]","{'V': 0.746, 'Sb': 0.179, 'Al': 0.075}",Other,3
V0.749Sb0.157Al0.094,5.1,V0.749 Sb0.157 Al0.094,"[Element V, Element Sb, Element Al]","{'V': 0.749, 'Sb': 0.157, 'Al': 0.094}",Other,3
V0.741Sb0.113Al0.146,6.1,V0.741 Sb0.113 Al0.146,"[Element V, Element Sb, Element Al]","{'V': 0.741, 'Sb': 0.113, 'Al': 0.146}",Other,3
V0.736Sb0.037Al0.227,6.4,V0.736 Sb0.037 Al0.227,"[Element V, Element Sb, Element Al]","{'V': 0.736, 'Sb': 0.037, 'Al': 0.227}",Other,3
La0.9941Tb0.0059Al2,1.996,La0.9941 Tb0.0059 Al2,"[Element La, Element Tb, Element Al]","{'La': 0.9941, 'Tb': 0.0059, 'Al': 2.0}",Other,3
La0.9911Tb0.0089Al2,1.425,La0.9911 Tb0.0089 Al2,"[Element La, Element Tb, Element Al]","{'La': 0.9911, 'Tb': 0.0089, 'Al': 2.0}",Other,3
Al13Os3.2Ru0.8,4.0,Al13 Os3.2 Ru0.8,"[Element Al, Element Os, Element Ru]","{'Al': 13.0, 'Os': 3.2, 'Ru': 0.8}",Other,3
Cu1Co1.99Rh0.01S4,2.61,Cu1 Co1.99 Rh0.01 S4,"[Element Cu, Element Co, Element Rh, Element S]","{'Cu': 1.0, 'Co': 1.99, 'Rh': 0.01, 'S': 4.0}",Other,4
Cu1Co1.98Rh0.02S4,2.82,Cu1 Co1.98 Rh0.02 S4,"[Element Cu, Element Co, Element Rh, Element S]","{'Cu': 1.0, 'Co': 1.98, 'Rh': 0.02, 'S': 4.0}",Other,4
Cu1Co1.99Ir0.01S4,3.04,Cu1 Co1.99 Ir0.01 S4,"[Element Cu, Element Co, Element Ir, Element S]","{'Cu': 1.0, 'Co': 1.99, 'Ir': 0.01, 'S': 4.0}",Other,4
Cu1Co1.98Ir0.02S4,2.79,Cu1 Co1.98 Ir0.02 S4,"[Element Cu, Element Co, Element Ir, Element S]","{'Cu': 1.0, 'Co': 1.98, 'Ir': 0.02, 'S': 4.0}",Other,4
Cu1Co1.95Ir0.05S4,2.13,Cu1 Co1.95 Ir0.05 S4,"[Element Cu, Element Co, Element Ir, Element S]","{'Cu': 1.0, 'Co': 1.95, 'Ir': 0.05, 'S': 4.0}",Other,4
Cu1Co1.99Cr0.01S4,3.62,Cu1 Co1.99 Cr0.01 S4,"[Element Cu, Element Co, Element Cr, Element S]","{'Cu': 1.0, 'Co': 1.99, 'Cr': 0.01, 'S': 4.0}",Other,4
Cu1Co1.98Cr0.02S4,3.4,Cu1 Co1.98 Cr0.02 S4,"[Element Cu, Element Co, Element Cr, Element S]","{'Cu': 1.0, 'Co': 1.98, 'Cr': 0.02, 'S': 4.0}",Other,4
Cu1Co1.95Cr0.05S4,3.4,Cu1 Co1.95 Cr0.05 S4,"[Element Cu, Element Co, Element Cr, Element S]","{'Cu': 1.0, 'Co': 1.95, 'Cr': 0.05, 'S': 4.0}",Other,4
Cu1Co1.9Cr0.1S4,3.0,Cu1 Co1.9 Cr0.1 S4,"[Element Cu, Element Co, Element Cr, Element S]","{'Cu': 1.0, 'Co': 1.9, 'Cr': 0.1, 'S': 4.0}",Other,4
Cu1Co1.8Cr0.2S4,2.7,Cu1 Co1.8 Cr0.2 S4,"[Element Cu, Element Co, Element Cr, Element S]","{'Cu': 1.0, 'Co': 1.8, 'Cr': 0.2, 'S': 4.0}",Other,4
Ce1Ru1.99Co0.01,4.74,Ce1 Ru1.99 Co0.01,"[Element Ce, Element Ru, Element Co]","{'Ce': 1.0, 'Ru': 1.99, 'Co': 0.01}",Other,3
Ce1Ru1.97Co0.03,3.5,Ce1 Ru1.97 Co0.03,"[Element Ce, Element Ru, Element Co]","{'Ce': 1.0, 'Ru': 1.97, 'Co': 0.03}",Other,3
Ce1Ru1.95Co0.05,2.4,Ce1 Ru1.95 Co0.05,"[Element Ce, Element Ru, Element Co]","{'Ce': 1.0, 'Ru': 1.95, 'Co': 0.05}",Other,3
Ce1Ru1.93Co0.07,1.93,Ce1 Ru1.93 Co0.07,"[Element Ce, Element Ru, Element Co]","{'Ce': 1.0, 'Ru': 1.93, 'Co': 0.07}",Other,3
Ce1Ru0.3Co1.7,0.27,Ce1 Ru0.3 Co1.7,"[Element Ce, Element Ru, Element Co]","{'Ce': 1.0, 'Ru': 0.3, 'Co': 1.7}",Other,3
Ce1Ru0.2Co1.8,0.35,Ce1 Ru0.2 Co1.8,"[Element Ce, Element Ru, Element Co]","{'Ce': 1.0, 'Ru': 0.2, 'Co': 1.8}",Other,3
Ce1Ru0.1Co1.9,0.47,Ce1 Ru0.1 Co1.9,"[Element Ce, Element Ru, Element Co]","{'Ce': 1.0, 'Ru': 0.1, 'Co': 1.9}",Other,3
Ce0.025Th0.975,0.58,Ce0.025 Th0.975,"[Element Ce, Element Th]","{'Ce': 0.025, 'Th': 0.975}",Other,2
Th0.999U0.001,0.654,Th0.999 U0.001,"[Element Th, Element U]","{'Th': 0.999, 'U': 0.001}",Other,2
Al0.999Mn0.001,0.596,Al0.999 Mn0.001,"[Element Al, Element Mn]","{'Al': 0.999, 'Mn': 0.001}",Other,2
Al3Nb3,18.4,Al3 Nb3,"[Element Al, Element Nb]","{'Al': 3.0, 'Nb': 3.0}",Other,2
Nb3Al0.7Ge0.3,19.9,Nb3 Al0.7 Ge0.3,"[Element Nb, Element Al, Element Ge]","{'Nb': 3.0, 'Al': 0.7, 'Ge': 0.3}",Other,3
Nb3Al0.6Ge0.4,19.7,Nb3 Al0.6 Ge0.4,"[Element Nb, Element Al, Element Ge]","{'Nb': 3.0, 'Al': 0.6, 'Ge': 0.4}",Other,3