chemical_formula,Tc,composition,elements,stoichiometry,Category,num_elements
Te2Mo6Se6,3.0,Te2 Mo6 Se6,"[Element Te, Element Mo, Element Se]","{'Te': 2.0, 'Mo': 6.0, 'Se': 6.0}",Other,3
La3Ir2Ge2,4.7,La3 Ir2 Ge2,"[Element La, Element Ir, Element Ge]","{'La': 3.0, 'Ir': 2.0, 'Ge': 2.0}",Other,3
Mg0.9Al0.1B2,37.5,Mg0.9 Al0.1 B2,"[Element Mg, Element Al, Element B]","{'Mg': 0.9, 'Al': 0.1, 'B': 2.0}",Other,3
Mg0.8Al0.2B2,33.4,Mg0.8 Al0.2 B2,"[Element Mg, Element Al, Element B]","{'Mg': 0.8, 'Al': 0.2, 'B': 2.0}",Other,3
Mg0.7Al0.3B2,26.7,Mg0.7 Al0.3 B2,"[Element Mg, Element Al, Element B]","{'Mg': 0.7, 'Al': 0.3, 'B': 2.0}",Other,3
Ce0.0007La0.9993,4.65,Ce0.0007 La0.9993,"[Element Ce, Element La]","{'Ce': 0.0007, 'La': 0.9993}",Other,2
Ce0.013La0.987,3.7,Ce0.013 La0.987,"[Element Ce, Element La]","{'Ce': 0.013, 'La': 0.987}",Other,2
Ce0.02La0.98,2.56,Ce0.02 La0.98,"[Element Ce, Element La]","{'Ce': 0.02, 'La': 0.98}",Other,2
As0.1P0.9,9.9,As0.1 P0.9,"[Element As, Element P]","{'As': 0.1, 'P': 0.9}",Other,2
Mg0.93Al0.07B2,35.8,Mg0.93 Al0.07 B2,"[Element Mg, Element Al, Element B]","{'Mg': 0.93, 'Al': 0.07, 'B': 2.0}",Other,3
Mg0.85Al0.15B2,31.5,Mg0.85 Al0.15 B2,"[Element Mg, Element Al, Element B]","{'Mg': 0.85, 'Al': 0.15, 'B': 2.0}",Other,3
Mg1C1.6Ni3,6.9,Mg1 C1.6 Ni3,"[Element Mg, Element C, Element Ni]","{'Mg': 1.0, 'C': 1.6, 'Ni': 3.0}",Other,3
Pb0.996Tl0.004Te1,0.061,Pb0.996 Tl0.004 Te1,"[Element Pb, Element Tl, Element Te]","{'Pb': 0.996, 'Tl': 0.004, 'Te': 1.0}",Other,3
Pb0.9922Tl0.0078Te1,0.51,Pb0.9922 Tl0.0078 Te1,"[Element Pb, Element Tl, Element Te]","{'Pb': 0.9922, 'Tl': 0.0078, 'Te': 1.0}",Other,3
Pb0.987Tl0.013Te1,1.32,Pb0.987 Tl0.013 Te1,"[Element Pb, Element Tl, Element Te]","{'Pb': 0.987, 'Tl': 0.013, 'Te': 1.0}",Other,3
Sn0.87Ag0.1Te1,1.88,Sn0.87 Ag0.1 Te1,"[Element Sn, Element Ag, Element Te]","{'Sn': 0.87, 'Ag': 0.1, 'Te': 1.0}",Other,3
Sn0.97Te1,0.189,Sn0.97 Te1,"[Element Sn, Element Te]","{'Sn': 0.97, 'Te': 1.0}",Other,2
P3Sn4,1.24,P3 Sn4,"[Element P, Element Sn]","{'P': 3.0, 'Sn': 4.0}",Other,2
As3Sn4,1.23,As3 Sn4,"[Element As, Element Sn]","{'As': 3.0, 'Sn': 4.0}",Other,2
Te3Tl5,2.21,Te3 Tl5,"[Element Te, Element Tl]","{'Te': 3.0, 'Tl': 5.0}",Other,2
Nb1N1.34O0.27,11.3,Nb1 N1.34 O0.27,"[Element Nb, Element N, Element O]","{'Nb': 1.0, 'N': 1.34, 'O': 0.27}",Other,3
Nb1N1.25O0.25,11.9,Nb1 N1.25 O0.25,"[Element Nb, Element N, Element O]","{'Nb': 1.0, 'N': 1.25, 'O': 0.25}",Other,3
Nb1N1.22O0.18,12.3,Nb1 N1.22 O0.18,"[Element Nb, Element N, Element O]","{'Nb': 1.0, 'N': 1.22, 'O': 0.18}",Other,3
Nb1N1.08O0.27,12.8,Nb1 N1.08 O0.27,"[Element Nb, Element N, Element O]","{'Nb': 1.0, 'N': 1.08, 'O': 0.27}",Other,3
Nb1N0.9O0.02,14.7,Nb1 N0.9 O0.02,"[Element Nb, Element N, Element O]","{'Nb': 1.0, 'N': 0.9, 'O': 0.02}",Other,3
In0.95Te1,2.7,In0.95 Te1,"[Element In, Element Te]","{'In': 0.95, 'Te': 1.0}",Other,2
In0.91Te1,2.04,In0.91 Te1,"[Element In, Element Te]","{'In': 0.91, 'Te': 1.0}",Other,2
In0.87Te1,1.55,In0.87 Te1,"[Element In, Element Te]","{'In': 0.87, 'Te': 1.0}",Other,2
In0.83Te1,1.15,In0.83 Te1,"[Element In, Element Te]","{'In': 0.83, 'Te': 1.0}",Other,2
In0.82Te1,1.06,In0.82 Te1,"[Element In, Element Te]","{'In': 0.82, 'Te': 1.0}",Other,2
In1.15Te1,2.6,In1.15 Te1,"[Element In, Element Te]","{'In': 1.15, 'Te': 1.0}",Other,2
In1.1Te1,2.8,In1.1 Te1,"[Element In, Element Te]","{'In': 1.1, 'Te': 1.0}",Other,2
In1.05Te1,3.41,In1.05 Te1,"[Element In, Element Te]","{'In': 1.05, 'Te': 1.0}",Other,2
In1.015Te1,3.51,In1.015 Te1,"[Element In, Element Te]","{'In': 1.015, 'Te': 1.0}",Other,2
In1Te1,3.45,In1 Te1,"[Element In, Element Te]","{'In': 1.0, 'Te': 1.0}",Other,2
Sr0.925Ba0.075Ti1O3,0.5,Sr0.925 Ba0.075 Ti1 O3,"[Element Sr, Element Ba, Element Ti, Element O]","{'Sr': 0.925, 'Ba': 0.075, 'Ti': 1.0, 'O': 3.0}",Other,4
As1Ga1,4.8,As1 Ga1,"[Element As, Element Ga]","{'As': 1.0, 'Ga': 1.0}",Other,2
Al1Sb1,2.8,Al1 Sb1,"[Element Al, Element Sb]","{'Al': 1.0, 'Sb': 1.0}",Other,2
Ga1Sb1,4.2,Ga1 Sb1,"[Element Ga, Element Sb]","{'Ga': 1.0, 'Sb': 1.0}",Other,2
Bi1Sn1,7.88,Bi1 Sn1,"[Element Bi, Element Sn]","{'Bi': 1.0, 'Sn': 1.0}",Other,2
Bi2Te3,2.8,Bi2 Te3,"[Element Bi, Element Te]","{'Bi': 2.0, 'Te': 3.0}",Other,2
Sr0.95Ba0.05Ti1O3,0.5,Sr0.95 Ba0.05 Ti1 O3,"[Element Sr, Element Ba, Element Ti, Element O]","{'Sr': 0.95, 'Ba': 0.05, 'Ti': 1.0, 'O': 3.0}",Other,4
Sr0.7Ca0.3Ti1O3,0.5,Sr0.7 Ca0.3 Ti1 O3,"[Element Sr, Element Ca, Element Ti, Element O]","{'Sr': 0.7, 'Ca': 0.3, 'Ti': 1.0, 'O': 3.0}",Other,4
In1Sb1,2.0,In1 Sb1,"[Element In, Element Sb]","{'In': 1.0, 'Sb': 1.0}",Other,2
W7Re13B1,7.1,W7 Re13 B1,"[Element W, Element Re, Element B]","{'W': 7.0, 'Re': 13.0, 'B': 1.0}",Other,3
W7Re13C1,7.3,W7 Re13 C1,"[Element W, Element Re, Element C]","{'W': 7.0, 'Re': 13.0, 'C': 1.0}",Other,3
Na0.65H5Sn1.16S5.16Ta2O2.5,4.0,Na0.65 H5 Sn1.16 S5.16 Ta2 O2.5,"[Element Na, Element H, Element Sn, Element S, Element Ta, Element O]","{'Na': 0.65, 'H': 5.0, 'Sn': 1.16, 'S': 5.16, 'Ta': 2.0, 'O': 2.5}",Hydrides,6
Na0.4H3.6Pb1.14S5.14Ta2O1.8,3.7,Na0.4 H3.6 Pb1.14 S5.14 Ta2 O1.8,"[Element Na, Element H, Element Pb, Element S, Element Ta, Element O]","{'Na': 0.4, 'H': 3.6, 'Pb': 1.14, 'S': 5.14, 'Ta': 2.0, 'O': 1.8}",Hydrides,6
Na0.4H3.6Sb1.16S5.16Ta2O1.8,3.5,Na0.4 H3.6 Sb1.16 S5.16 Ta2 O1.8,"[Element Na, Element H, Element Sb, Element S, Element Ta, Element O]","{'Na': 0.4, 'H': 3.6, 'Sb': 1.16, 'S': 5.16, 'Ta': 2.0, 'O': 1.8}",Hydrides,6
Ge2U1,0.62,Ge2 U1,"[Element Ge, Element U]","{'Ge': 2.0, 'U': 1.0}",Other,2
La1Os4P12,1.8,La1 Os4 P12,"[Element La, Element Os, Element P]","{'La': 1.0, 'Os': 4.0, 'P': 12.0}",Other,3
Cs1Os1O6,3.3,Cs1 Os1 O6,"[Element Cs, Element Os, Element O]","{'Cs': 1.0, 'Os': 1.0, 'O': 6.0}",Other,3
Rb1Os1O6,6.3,Rb1 Os1 O6,"[Element Rb, Element Os, Element O]","{'Rb': 1.0, 'Os': 1.0, 'O': 6.0}",Other,3
B2.03Nb1,5.26,B2.03 Nb1,"[Element B, Element Nb]","{'B': 2.03, 'Nb': 1.0}",Other,2
B2.1Nb1,5.8,B2.1 Nb1,"[Element B, Element Nb]","{'B': 2.1, 'Nb': 1.0}",Other,2
Sn1Te1,0.214,Sn1 Te1,"[Element Sn, Element Te]","{'Sn': 1.0, 'Te': 1.0}",Other,2
La3Se4,10.0,La3 Se4,"[Element La, Element Se]","{'La': 3.0, 'Se': 4.0}",Other,2
In3Te4,1.15,In3 Te4,"[Element In, Element Te]","{'In': 3.0, 'Te': 4.0}",Other,2
Ge3Te4,1.55,Ge3 Te4,"[Element Ge, Element Te]","{'Ge': 3.0, 'Te': 4.0}",Other,2
Sr0.925Ca0.075Ti1O3,0.5,Sr0.925 Ca0.075 Ti1 O3,"[Element Sr, Element Ca, Element Ti, Element O]","{'Sr': 0.925, 'Ca': 0.075, 'Ti': 1.0, 'O': 3.0}",Other,4
In0.03Sn0.97Te1.01,1.07,In0.03 Sn0.97 Te1.01,"[Element In, Element Sn, Element Te]","{'In': 0.03, 'Sn': 0.97, 'Te': 1.01}",Other,3
In0.04Sn0.96Te1.01,1.14,In0.04 Sn0.96 Te1.01,"[Element In, Element Sn, Element Te]","{'In': 0.04, 'Sn': 0.96, 'Te': 1.01}",Other,3
In0.045Sn0.955Te1.01,1.2,In0.045 Sn0.955 Te1.01,"[Element In, Element Sn, Element Te]","{'In': 0.045, 'Sn': 0.955, 'Te': 1.01}",Other,3
In0.05Sn0.95Te1.01,1.43,In0.05 Sn0.95 Te1.01,"[Element In, Element Sn, Element Te]","{'In': 0.05, 'Sn': 0.95, 'Te': 1.01}",Other,3
In0.06Sn0.94Te1.01,1.36,In0.06 Sn0.94 Te1.01,"[Element In, Element Sn, Element Te]","{'In': 0.06, 'Sn': 0.94, 'Te': 1.01}",Other,3
In0.08Sn0.92Te1.01,1.45,In0.08 Sn0.92 Te1.01,"[Element In, Element Sn, Element Te]","{'In': 0.08, 'Sn': 0.92, 'Te': 1.01}",Other,3
In0.1Sn0.9Te1.01,1.75,In0.1 Sn0.9 Te1.01,"[Element In, Element Sn, Element Te]","{'In': 0.1, 'Sn': 0.9, 'Te': 1.01}",Other,3
Mg1B1.85C0.15,27.2,Mg1 B1.85 C0.15,"[Element Mg, Element B, Element C]","{'Mg': 1.0, 'B': 1.85, 'C': 0.15}",Other,3
Mg0.978Al0.022B2,34.7,Mg0.978 Al0.022 B2,"[Element Mg, Element Al, Element B]","{'Mg': 0.978, 'Al': 0.022, 'B': 2.0}",Other,3
Mg0.956Al0.044B2,34.0,Mg0.956 Al0.044 B2,"[Element Mg, Element Al, Element B]","{'Mg': 0.956, 'Al': 0.044, 'B': 2.0}",Other,3
Mg0.915Al0.085B2,32.4,Mg0.915 Al0.085 B2,"[Element Mg, Element Al, Element B]","{'Mg': 0.915, 'Al': 0.085, 'B': 2.0}",Other,3
Mg0.815Al0.185B2,25.3,Mg0.815 Al0.185 B2,"[Element Mg, Element Al, Element B]","{'Mg': 0.815, 'Al': 0.185, 'B': 2.0}",Other,3
Mg0.815Al0.09B2,32.7,Mg0.815 Al0.09 B2,"[Element Mg, Element Al, Element B]","{'Mg': 0.815, 'Al': 0.09, 'B': 2.0}",Other,3
Mg0.815Al0.18B2,25.7,Mg0.815 Al0.18 B2,"[Element Mg, Element Al, Element B]","{'Mg': 0.815, 'Al': 0.18, 'B': 2.0}",Other,3
Mg0.815Al0.024B2,35.0,Mg0.815 Al0.024 B2,"[Element Mg, Element Al, Element B]","{'Mg': 0.815, 'Al': 0.024, 'B': 2.0}",Other,3
Mg0.815Al0.092B2,32.0,Mg0.815 Al0.092 B2,"[Element Mg, Element Al, Element B]","{'Mg': 0.815, 'Al': 0.092, 'B': 2.0}",Other,3
U1Rh1Ge1,0.222,U1 Rh1 Ge1,"[Element U, Element Rh, Element Ge]","{'U': 1.0, 'Rh': 1.0, 'Ge': 1.0}",Other,3
Mg1C0.925Ni3,7.09,Mg1 C0.925 Ni3,"[Element Mg, Element C, Element Ni]","{'Mg': 1.0, 'C': 0.925, 'Ni': 3.0}",Other,3
Mg1C0.885B0.04Ni3,6.97,Mg1 C0.885 B0.04 Ni3,"[Element Mg, Element C, Element B, Element Ni]","{'Mg': 1.0, 'C': 0.885, 'B': 0.04, 'Ni': 3.0}",Other,4
Mg1C0.853B0.072Ni3,6.76,Mg1 C0.853 B0.072 Ni3,"[Element Mg, Element C, Element B, Element Ni]","{'Mg': 1.0, 'C': 0.853, 'B': 0.072, 'Ni': 3.0}",Other,4
Mg1C0.814B0.111Ni3,6.88,Mg1 C0.814 B0.111 Ni3,"[Element Mg, Element C, Element B, Element Ni]","{'Mg': 1.0, 'C': 0.814, 'B': 0.111, 'Ni': 3.0}",Other,4
Mg1C0.771B0.154Ni3,6.44,Mg1 C0.771 B0.154 Ni3,"[Element Mg, Element C, Element B, Element Ni]","{'Mg': 1.0, 'C': 0.771, 'B': 0.154, 'Ni': 3.0}",Other,4
Na0.1Ta1S2,4.4,Na0.1 Ta1 S2,"[Element Na, Element Ta, Element S]","{'Na': 0.1, 'Ta': 1.0, 'S': 2.0}",Other,3
Na0.05Ta1S2,4.0,Na0.05 Ta1 S2,"[Element Na, Element Ta, Element S]","{'Na': 0.05, 'Ta': 1.0, 'S': 2.0}",Other,3
Ce1Rh0.6Co0.4In5,1.5,Ce1 Rh0.6 Co0.4 In5,"[Element Ce, Element Rh, Element Co, Element In]","{'Ce': 1.0, 'Rh': 0.6, 'Co': 0.4, 'In': 5.0}",Other,4
Ce1Rh0.4Co0.6In5,1.43,Ce1 Rh0.4 Co0.6 In5,"[Element Ce, Element Rh, Element Co, Element In]","{'Ce': 1.0, 'Rh': 0.4, 'Co': 0.6, 'In': 5.0}",Other,4
Ce1Rh0.35Co0.65In5,1.38,Ce1 Rh0.35 Co0.65 In5,"[Element Ce, Element Rh, Element Co, Element In]","{'Ce': 1.0, 'Rh': 0.35, 'Co': 0.65, 'In': 5.0}",Other,4
Ce1Rh0.29Co0.71In5,1.56,Ce1 Rh0.29 Co0.71 In5,"[Element Ce, Element Rh, Element Co, Element In]","{'Ce': 1.0, 'Rh': 0.29, 'Co': 0.71, 'In': 5.0}",Other,4
Ce1Rh0.23Co0.77In5,1.38,Ce1 Rh0.23 Co0.77 In5,"[Element Ce, Element Rh, Element Co, Element In]","{'Ce': 1.0, 'Rh': 0.23, 'Co': 0.77, 'In': 5.0}",Other,4
Ce1Rh0.13Co0.87In5,1.73,Ce1 Rh0.13 Co0.87 In5,"[Element Ce, Element Rh, Element Co, Element In]","{'Ce': 1.0, 'Rh': 0.13, 'Co': 0.87, 'In': 5.0}",Other,4
Ce1Rh0.07Co0.93In5,1.89,Ce1 Rh0.07 Co0.93 In5,"[Element Ce, Element Rh, Element Co, Element In]","{'Ce': 1.0, 'Rh': 0.07, 'Co': 0.93, 'In': 5.0}",Other,4
Nb1Se3,5.0,Nb1 Se3,"[Element Nb, Element Se]","{'Nb': 1.0, 'Se': 3.0}",Other,2
Ba7.76Si46,9.0,Ba7.76 Si46,"[Element Ba, Element Si]","{'Ba': 7.76, 'Si': 46.0}",Other,2
Ba7.61Si46,8.2,Ba7.61 Si46,"[Element Ba, Element Si]","{'Ba': 7.61, 'Si': 46.0}",Other,2
Ba6.63Si46,6.0,Ba6.63 Si46,"[Element Ba, Element Si]","{'Ba': 6.63, 'Si': 46.0}",Other,2
Ba6.62Si46,5.0,Ba6.62 Si46,"[Element Ba, Element Si]","{'Ba': 6.62, 'Si': 46.0}",Other,2
Ce0.9Pr0.1Ru2,6.55,Ce0.9 Pr0.1 Ru2,"[Element Ce, Element Pr, Element Ru]","{'Ce': 0.9, 'Pr': 0.1, 'Ru': 2.0}",Other,3
Ce0.8Pr0.2Ru2,5.82,Ce0.8 Pr0.2 Ru2,"[Element Ce, Element Pr, Element Ru]","{'Ce': 0.8, 'Pr': 0.2, 'Ru': 2.0}",Other,3
Ce0.7Pr0.3Ru2,5.11,Ce0.7 Pr0.3 Ru2,"[Element Ce, Element Pr, Element Ru]","{'Ce': 0.7, 'Pr': 0.3, 'Ru': 2.0}",Other,3
Ce0.65Pr0.35Ru2,1.25,Ce0.65 Pr0.35 Ru2,"[Element Ce, Element Pr, Element Ru]","{'Ce': 0.65, 'Pr': 0.35, 'Ru': 2.0}",Other,3
Ge2La1,2.24,Ge2 La1,"[Element Ge, Element La]","{'Ge': 2.0, 'La': 1.0}",Other,2
Ge1.9La1,2.17,Ge1.9 La1,"[Element Ge, Element La]","{'Ge': 1.9, 'La': 1.0}",Other,2
Ge1.85La1,2.17,Ge1.85 La1,"[Element Ge, Element La]","{'Ge': 1.85, 'La': 1.0}",Other,2
Ge1.83La1,2.17,Ge1.83 La1,"[Element Ge, Element La]","{'Ge': 1.83, 'La': 1.0}",Other,2
Ge1.81La1,2.17,Ge1.81 La1,"[Element Ge, Element La]","{'Ge': 1.81, 'La': 1.0}",Other,2
Ge1.8La1,1.87,Ge1.8 La1,"[Element Ge, Element La]","{'Ge': 1.8, 'La': 1.0}",Other,2
Ge1.78La1,1.57,Ge1.78 La1,"[Element Ge, Element La]","{'Ge': 1.78, 'La': 1.0}",Other,2
Mg0.99Cr0.01B2,36.7,Mg0.99 Cr0.01 B2,"[Element Mg, Element Cr, Element B]","{'Mg': 0.99, 'Cr': 0.01, 'B': 2.0}",Other,3
Mg0.98Cr0.02B2,35.3,Mg0.98 Cr0.02 B2,"[Element Mg, Element Cr, Element B]","{'Mg': 0.98, 'Cr': 0.02, 'B': 2.0}",Other,3
Mg0.97Cr0.03B2,35.1,Mg0.97 Cr0.03 B2,"[Element Mg, Element Cr, Element B]","{'Mg': 0.97, 'Cr': 0.03, 'B': 2.0}",Other,3
Pr2Ba4Cu7O14.5,10.0,Pr2 Ba4 Cu7 O14.5,"[Element Pr, Element Ba, Element Cu, Element O]","{'Pr': 2.0, 'Ba': 4.0, 'Cu': 7.0, 'O': 14.5}",Cuprates,4
Pt3U1,0.5,Pt3 U1,"[Element Pt, Element U]","{'Pt': 3.0, 'U': 1.0}",Other,2
Mn1U6,2.21,Mn1 U6,"[Element Mn, Element U]","{'Mn': 1.0, 'U': 6.0}",Other,2
Co1U6,2.29,Co1 U6,"[Element Co, Element U]","{'Co': 1.0, 'U': 6.0}",Other,2
Ni1U6,0.35,Ni1 U6,"[Element Ni, Element U]","{'Ni': 1.0, 'U': 6.0}",Other,2
In1La3,9.46,In1 La3,"[Element In, Element La]","{'In': 1.0, 'La': 3.0}",Other,2
La2.9579Ce0.0421In1,7.11,La2.9579 Ce0.0421 In1,"[Element La, Element Ce, Element In]","{'La': 2.9579, 'Ce': 0.0421, 'In': 1.0}",Other,3
La2.9394Ce0.0606In1,5.72,La2.9394 Ce0.0606 In1,"[Element La, Element Ce, Element In]","{'La': 2.9394, 'Ce': 0.0606, 'In': 1.0}",Other,3
La2.9251Ce0.0749In1,4.42,La2.9251 Ce0.0749 In1,"[Element La, Element Ce, Element In]","{'La': 2.9251, 'Ce': 0.0749, 'In': 1.0}",Other,3
La2.9234Ce0.0766In1,4.02,La2.9234 Ce0.0766 In1,"[Element La, Element Ce, Element In]","{'La': 2.9234, 'Ce': 0.0766, 'In': 1.0}",Other,3
B1W2,3.18,B1 W2,"[Element B, Element W]","{'B': 1.0, 'W': 2.0}",Other,2
Ir1Mo3,8.35,Ir1 Mo3,"[Element Ir, Element Mo]","{'Ir': 1.0, 'Mo': 3.0}",Other,2
Ag0.15Bi0.85,5.3,Ag0.15 Bi0.85,"[Element Ag, Element Bi]","{'Ag': 0.15, 'Bi': 0.85}",Other,2
Ag1Bi2,3.0,Ag1 Bi2,"[Element Ag, Element Bi]","{'Ag': 1.0, 'Bi': 2.0}",Other,2
Ag7F4O8B1,0.15,Ag7 F4 O8 B1,"[Element Ag, Element F, Element O, Element B]","{'Ag': 7.0, 'F': 4.0, 'O': 8.0, 'B': 1.0}",Other,4
Ag0.002Al0.998,1.128,Ag0.002 Al0.998,"[Element Ag, Element Al]","{'Ag': 0.002, 'Al': 0.998}",Other,2
Ag0.167Al0.833,0.88,Ag0.167 Al0.833,"[Element Ag, Element Al]","{'Ag': 0.167, 'Al': 0.833}",Other,2
Ag7F0.25N0.75O10.25,1.04,Ag7 F0.25 N0.75 O10.25,"[Element Ag, Element F, Element N, Element O]","{'Ag': 7.0, 'F': 0.25, 'N': 0.75, 'O': 10.25}",Other,4
Ag7F2H1O8,1.5,Ag7 F2 H1 O8,"[Element Ag, Element F, Element H, Element O]","{'Ag': 7.0, 'F': 2.0, 'H': 1.0, 'O': 8.0}",Hydrides,4
Ag2I1,0.066,Ag2 I1,"[Element Ag, Element I]","{'Ag': 2.0, 'I': 1.0}",Other,2
Ag1La1,1.2,Ag1 La1,"[Element Ag, Element La]","{'Ag': 1.0, 'La': 1.0}",Other,2
Ag0.12In0.88,4.69,Ag0.12 In0.88,"[Element Ag, Element In]","{'Ag': 0.12, 'In': 0.88}",Other,2
Ag2In1,2.11,Ag2 In1,"[Element Ag, Element In]","{'Ag': 2.0, 'In': 1.0}",Other,2
Ag0.438Hg0.562,0.64,Ag0.438 Hg0.562,"[Element Ag, Element Hg]","{'Ag': 0.438, 'Hg': 0.562}",Other,2
Ag0.45Ge0.55,1.5,Ag0.45 Ge0.55,"[Element Ag, Element Ge]","{'Ag': 0.45, 'Ge': 0.55}",Other,2
Ag4Ge1,0.85,Ag4 Ge1,"[Element Ag, Element Ge]","{'Ag': 4.0, 'Ge': 1.0}",Other,2
Ag0.05Rh0.04Ti0.91,1.95,Ag0.05 Rh0.04 Ti0.91,"[Element Ag, Element Rh, Element Ti]","{'Ag': 0.05, 'Rh': 0.04, 'Ti': 0.91}",Other,3
Ag2Pb3S1,1.13,Ag2 Pb3 S1,"[Element Ag, Element Pb, Element S]","{'Ag': 2.0, 'Pb': 3.0, 'S': 1.0}",Other,3
Ag0.15Pb0.975Sn0.01,7.25,Ag0.15 Pb0.975 Sn0.01,"[Element Ag, Element Pb, Element Sn]","{'Ag': 0.15, 'Pb': 0.975, 'Sn': 0.01}",Other,3
Ag1Nb3,8.28,Ag1 Nb3,"[Element Ag, Element Nb]","{'Ag': 1.0, 'Nb': 3.0}",Other,2
Ag1.2Mo4.8S6,8.9,Ag1.2 Mo4.8 S6,"[Element Ag, Element Mo, Element S]","{'Ag': 1.2, 'Mo': 4.8, 'S': 6.0}",Other,3
Ag1Mo4S5,7.7,Ag1 Mo4 S5,"[Element Ag, Element Mo, Element S]","{'Ag': 1.0, 'Mo': 4.0, 'S': 5.0}",Other,3
Ag1Th2,2.19,Ag1 Th2,"[Element Ag, Element Th]","{'Ag': 1.0, 'Th': 2.0}",Other,2
Ag1Te3,2.6,Ag1 Te3,"[Element Ag, Element Te]","{'Ag': 1.0, 'Te': 3.0}",Other,2
Al1Au4,0.7,Al1 Au4,"[Element Al, Element Au]","{'Al': 1.0, 'Au': 4.0}",Other,2
Al2Au1,0.095,Al2 Au1,"[Element Al, Element Au]","{'Al': 2.0, 'Au': 1.0}",Other,2
Al0.9As0.05Ga0.05Nb3,19.2,Al0.9 As0.05 Ga0.05 Nb3,"[Element Al, Element As, Element Ga, Element Nb]","{'Al': 0.9, 'As': 0.05, 'Ga': 0.05, 'Nb': 3.0}",Other,4
Ag0.1Tl0.9,3.57,Ag0.1 Tl0.9,"[Element Ag, Element Tl]","{'Ag': 0.1, 'Tl': 0.9}",Other,2
Ag1Tl1,2.67,Ag1 Tl1,"[Element Ag, Element Tl]","{'Ag': 1.0, 'Tl': 1.0}",Other,2
Ag0.94Tl0.06,2.32,Ag0.94 Tl0.06,"[Element Ag, Element Tl]","{'Ag': 0.94, 'Tl': 0.06}",Other,2
Al0.95Be0.05Nb3,19.6,Al0.95 Be0.05 Nb3,"[Element Al, Element Be, Element Nb]","{'Al': 0.95, 'Be': 0.05, 'Nb': 3.0}",Other,3
Al0.1Be0.9,7.2,Al0.1 Be0.9,"[Element Al, Element Be]","{'Al': 0.1, 'Be': 0.9}",Other,2
Al0.3Be0.7,6.5,Al0.3 Be0.7,"[Element Al, Element Be]","{'Al': 0.3, 'Be': 0.7}",Other,2
Al0.95B0.05Nb3,19.1,Al0.95 B0.05 Nb3,"[Element Al, Element B, Element Nb]","{'Al': 0.95, 'B': 0.05, 'Nb': 3.0}",Other,3
Al0.2B5Mo1.8,5.7,Al0.2 B5 Mo1.8,"[Element Al, Element B, Element Mo]","{'Al': 0.2, 'B': 5.0, 'Mo': 1.8}",Other,3
Al2Ca1Si1,5.8,Al2 Ca1 Si1,"[Element Al, Element Ca, Element Si]","{'Al': 2.0, 'Ca': 1.0, 'Si': 1.0}",Other,3
Al0.5Ga0.5V3,12.9,Al0.5 Ga0.5 V3,"[Element Al, Element Ga, Element V]","{'Al': 0.5, 'Ga': 0.5, 'V': 3.0}",Other,3
Al0.5Ga0.5Nb3,19.0,Al0.5 Ga0.5 Nb3,"[Element Al, Element Ga, Element Nb]","{'Al': 0.5, 'Ga': 0.5, 'Nb': 3.0}",Other,3
Al0.9Ga0.1Nb3,17.7,Al0.9 Ga0.1 Nb3,"[Element Al, Element Ga, Element Nb]","{'Al': 0.9, 'Ga': 0.1, 'Nb': 3.0}",Other,3
Al0.999Fe0.001,1.5,Al0.999 Fe0.001,"[Element Al, Element Fe]","{'Al': 0.999, 'Fe': 0.001}",Fe-based,2
Al0.997Er0.003,1.658,Al0.997 Er0.003,"[Element Al, Element Er]","{'Al': 0.997, 'Er': 0.003}",Other,2
Al1Cu1,3.45,Al1 Cu1,"[Element Al, Element Cu]","{'Al': 1.0, 'Cu': 1.0}",Other,2
Al2.06Cu1,0.65,Al2.06 Cu1,"[Element Al, Element Cu]","{'Al': 2.06, 'Cu': 1.0}",Other,2
Al1Cr0.3Nb2.7,14.1,Al1 Cr0.3 Nb2.7,"[Element Al, Element Cr, Element Nb]","{'Al': 1.0, 'Cr': 0.3, 'Nb': 2.7}",Other,3
Al0.8Ge0.2Nb3,20.05,Al0.8 Ge0.2 Nb3,"[Element Al, Element Ge, Element Nb]","{'Al': 0.8, 'Ge': 0.2, 'Nb': 3.0}",Other,3
Al0.9Ge0.1Nb3,18.9,Al0.9 Ge0.1 Nb3,"[Element Al, Element Ge, Element Nb]","{'Al': 0.9, 'Ge': 0.1, 'Nb': 3.0}",Other,3
Al1Ge1Nb3,19.5,Al1 Ge1 Nb3,"[Element Al, Element Ge, Element Nb]","{'Al': 1.0, 'Ge': 1.0, 'Nb': 3.0}",Other,3
Al0.77Ge0.23Nb3,20.75,Al0.77 Ge0.23 Nb3,"[Element Al, Element Ge, Element Nb]","{'Al': 0.77, 'Ge': 0.23, 'Nb': 3.0}",Other,3
Al1Ge1,5.5,Al1 Ge1,"[Element Al, Element Ge]","{'Al': 1.0, 'Ge': 1.0}",Other,2
Al0.9Ge0.1,6.45,Al0.9 Ge0.1,"[Element Al, Element Ge]","{'Al': 0.9, 'Ge': 0.1}",Other,2
Al0.964Ge0.036,2.74,Al0.964 Ge0.036,"[Element Al, Element Ge]","{'Al': 0.964, 'Ge': 0.036}",Other,2
Al0.33Ge0.67,1.75,Al0.33 Ge0.67,"[Element Al, Element Ge]","{'Al': 0.33, 'Ge': 0.67}",Other,2
Al0.1Ga0.9V3,13.9,Al0.1 Ga0.9 V3,"[Element Al, Element Ga, Element V]","{'Al': 0.1, 'Ga': 0.9, 'V': 3.0}",Other,3
Al0.3Ga0.7V3,13.9,Al0.3 Ga0.7 V3,"[Element Al, Element Ga, Element V]","{'Al': 0.3, 'Ga': 0.7, 'V': 3.0}",Other,3
Al1La3,6.16,Al1 La3,"[Element Al, Element La]","{'Al': 1.0, 'La': 3.0}",Other,2
Al2La1,0.3,Al2 La1,"[Element Al, Element La]","{'Al': 2.0, 'La': 1.0}",Other,2
Al0.046In0.151Sn0.803,4.38,Al0.046 In0.151 Sn0.803,"[Element Al, Element In, Element Sn]","{'Al': 0.046, 'In': 0.151, 'Sn': 0.803}",Other,3
Al0.75Ge0.25Nb3.8,20.34,Al0.75 Ge0.25 Nb3.8,"[Element Al, Element Ge, Element Nb]","{'Al': 0.75, 'Ge': 0.25, 'Nb': 3.8}",Other,3
Al0.75Ge0.25Nb0.003,20.7,Al0.75 Ge0.25 Nb0.003,"[Element Al, Element Ge, Element Nb]","{'Al': 0.75, 'Ge': 0.25, 'Nb': 0.003}",Other,3
Al0.66Ge0.22Nb3.1,20.29,Al0.66 Ge0.22 Nb3.1,"[Element Al, Element Ge, Element Nb]","{'Al': 0.66, 'Ge': 0.22, 'Nb': 3.1}",Other,3
Al0.75Ge0.25Nb3,20.2,Al0.75 Ge0.25 Nb3,"[Element Al, Element Ge, Element Nb]","{'Al': 0.75, 'Ge': 0.25, 'Nb': 3.0}",Other,3
Al0.39Mg0.61,1.5,Al0.39 Mg0.61,"[Element Al, Element Mg]","{'Al': 0.39, 'Mg': 0.61}",Other,2