chemical_formula,Tc,composition,elements,stoichiometry,Category,num_elements
Tb0.56Ca0.44Fe1As1O1,15.6,Tb0.56 Ca0.44 Fe1 As1 O1,"[Element Tb, Element Ca, Element Fe, Element As, Element O]","{'Tb': 0.56, 'Ca': 0.44, 'Fe': 1.0, 'As': 1.0, 'O': 1.0}",Fe-based,5
Ba1Fe1.9Co0.1As2,19.5,Ba1 Fe1.9 Co0.1 As2,"[Element Ba, Element Fe, Element Co, Element As]","{'Ba': 1.0, 'Fe': 1.9, 'Co': 0.1, 'As': 2.0}",Fe-based,4
Ba1Fe1.89Co0.11As2,21.5,Ba1 Fe1.89 Co0.11 As2,"[Element Ba, Element Fe, Element Co, Element As]","{'Ba': 1.0, 'Fe': 1.89, 'Co': 0.11, 'As': 2.0}",Fe-based,4
Ba1Fe1.885Co0.115As2,24.3,Ba1 Fe1.885 Co0.115 As2,"[Element Ba, Element Fe, Element Co, Element As]","{'Ba': 1.0, 'Fe': 1.885, 'Co': 0.115, 'As': 2.0}",Fe-based,4
Ba1Fe1.82Co0.18As2,20.7,Ba1 Fe1.82 Co0.18 As2,"[Element Ba, Element Fe, Element Co, Element As]","{'Ba': 1.0, 'Fe': 1.82, 'Co': 0.18, 'As': 2.0}",Fe-based,4
Ba1Fe1.776Co0.224As2,11.1,Ba1 Fe1.776 Co0.224 As2,"[Element Ba, Element Fe, Element Co, Element As]","{'Ba': 1.0, 'Fe': 1.776, 'Co': 0.224, 'As': 2.0}",Fe-based,4
Ba1Fe1.76Co0.24As2,5.1,Ba1 Fe1.76 Co0.24 As2,"[Element Ba, Element Fe, Element Co, Element As]","{'Ba': 1.0, 'Fe': 1.76, 'Co': 0.24, 'As': 2.0}",Fe-based,4
Ce1Fe1As1F0.3O0.7,46.0,Ce1 Fe1 As1 F0.3 O0.7,"[Element Ce, Element Fe, Element As, Element F, Element O]","{'Ce': 1.0, 'Fe': 1.0, 'As': 1.0, 'F': 0.3, 'O': 0.7}",Fe-based,5
Fe1.04Te0.6Se0.4,14.0,Fe1.04 Te0.6 Se0.4,"[Element Fe, Element Te, Element Se]","{'Fe': 1.04, 'Te': 0.6, 'Se': 0.4}",Fe-based,3
Rb0.8Fe2Se2,31.75,Rb0.8 Fe2 Se2,"[Element Rb, Element Fe, Element Se]","{'Rb': 0.8, 'Fe': 2.0, 'Se': 2.0}",Fe-based,3
Cs0.8Fe2Se2,29.2,Cs0.8 Fe2 Se2,"[Element Cs, Element Fe, Element Se]","{'Cs': 0.8, 'Fe': 2.0, 'Se': 2.0}",Fe-based,3
Tl0.4K0.3Fe2Se2,26.25,Tl0.4 K0.3 Fe2 Se2,"[Element Tl, Element K, Element Fe, Element Se]","{'Tl': 0.4, 'K': 0.3, 'Fe': 2.0, 'Se': 2.0}",Fe-based,4
Tl0.4Rb0.4Fe2Se2,31.35,Tl0.4 Rb0.4 Fe2 Se2,"[Element Tl, Element Rb, Element Fe, Element Se]","{'Tl': 0.4, 'Rb': 0.4, 'Fe': 2.0, 'Se': 2.0}",Fe-based,4
Eu1Fe1.5Ru0.5As2,21.5,Eu1 Fe1.5 Ru0.5 As2,"[Element Eu, Element Fe, Element Ru, Element As]","{'Eu': 1.0, 'Fe': 1.5, 'Ru': 0.5, 'As': 2.0}",Fe-based,4
Sm1Fe0.825Co0.175As1O1,5.8,Sm1 Fe0.825 Co0.175 As1 O1,"[Element Sm, Element Fe, Element Co, Element As, Element O]","{'Sm': 1.0, 'Fe': 0.825, 'Co': 0.175, 'As': 1.0, 'O': 1.0}",Fe-based,5
Sm1Fe0.9Rh0.1As1O1,9.6,Sm1 Fe0.9 Rh0.1 As1 O1,"[Element Sm, Element Fe, Element Rh, Element As, Element O]","{'Sm': 1.0, 'Fe': 0.9, 'Rh': 0.1, 'As': 1.0, 'O': 1.0}",Fe-based,5
Sm1Fe0.875Ir0.125As1O1,16.5,Sm1 Fe0.875 Ir0.125 As1 O1,"[Element Sm, Element Fe, Element Ir, Element As, Element O]","{'Sm': 1.0, 'Fe': 0.875, 'Ir': 0.125, 'As': 1.0, 'O': 1.0}",Fe-based,5
Eu0.7Na0.3Fe2As1.4P0.6,25.2,Eu0.7 Na0.3 Fe2 As1.4 P0.6,"[Element Eu, Element Na, Element Fe, Element As, Element P]","{'Eu': 0.7, 'Na': 0.3, 'Fe': 2.0, 'As': 1.4, 'P': 0.6}",Fe-based,5
Ca8Mg1.5Ti4.5Fe2As2O9.5,40.0,Ca8 Mg1.5 Ti4.5 Fe2 As2 O9.5,"[Element Ca, Element Mg, Element Ti, Element Fe, Element As, Element O]","{'Ca': 8.0, 'Mg': 1.5, 'Ti': 4.5, 'Fe': 2.0, 'As': 2.0, 'O': 9.5}",Fe-based,6
Ca1Fe0.95Rh0.05As1F1,3.81,Ca1 Fe0.95 Rh0.05 As1 F1,"[Element Ca, Element Fe, Element Rh, Element As, Element F]","{'Ca': 1.0, 'Fe': 0.95, 'Rh': 0.05, 'As': 1.0, 'F': 1.0}",Fe-based,5
Ca1Fe0.92Rh0.08As1F1,22.2,Ca1 Fe0.92 Rh0.08 As1 F1,"[Element Ca, Element Fe, Element Rh, Element As, Element F]","{'Ca': 1.0, 'Fe': 0.92, 'Rh': 0.08, 'As': 1.0, 'F': 1.0}",Fe-based,5
Ca1Fe0.85Rh0.15As1F1,18.4,Ca1 Fe0.85 Rh0.15 As1 F1,"[Element Ca, Element Fe, Element Rh, Element As, Element F]","{'Ca': 1.0, 'Fe': 0.85, 'Rh': 0.15, 'As': 1.0, 'F': 1.0}",Fe-based,5
Th3Ni5C5,5.0,Th3 Ni5 C5,"[Element Th, Element Ni, Element C]","{'Th': 3.0, 'Ni': 5.0, 'C': 5.0}",Other,3
Ba1Fe1.82Ru0.18As2,25.8,Ba1 Fe1.82 Ru0.18 As2,"[Element Ba, Element Fe, Element Ru, Element As]","{'Ba': 1.0, 'Fe': 1.82, 'Ru': 0.18, 'As': 2.0}",Fe-based,4
Ba1Fe1.68Ru0.32As2,23.0,Ba1 Fe1.68 Ru0.32 As2,"[Element Ba, Element Fe, Element Ru, Element As]","{'Ba': 1.0, 'Fe': 1.68, 'Ru': 0.32, 'As': 2.0}",Fe-based,4
Ba1Fe1.44Ru0.56As2,15.0,Ba1 Fe1.44 Ru0.56 As2,"[Element Ba, Element Fe, Element Ru, Element As]","{'Ba': 1.0, 'Fe': 1.44, 'Ru': 0.56, 'As': 2.0}",Fe-based,4
Sm1Fe1As0.5P0.5O1,23.4,Sm1 Fe1 As0.5 P0.5 O1,"[Element Sm, Element Fe, Element As, Element P, Element O]","{'Sm': 1.0, 'Fe': 1.0, 'As': 0.5, 'P': 0.5, 'O': 1.0}",Fe-based,5
Sm1Fe1As0.5P0.5O0.85,17.0,Sm1 Fe1 As0.5 P0.5 O0.85,"[Element Sm, Element Fe, Element As, Element P, Element O]","{'Sm': 1.0, 'Fe': 1.0, 'As': 0.5, 'P': 0.5, 'O': 0.85}",Fe-based,5
Rb0.653Fe1.532Se2,30.9,Rb0.653 Fe1.532 Se2,"[Element Rb, Element Fe, Element Se]","{'Rb': 0.653, 'Fe': 1.532, 'Se': 2.0}",Fe-based,3
Rb0.796Fe1.596Se2,32.4,Rb0.796 Fe1.596 Se2,"[Element Rb, Element Fe, Element Se]","{'Rb': 0.796, 'Fe': 1.596, 'Se': 2.0}",Fe-based,3
Rb0.801Fe1.602Se2,32.4,Rb0.801 Fe1.602 Se2,"[Element Rb, Element Fe, Element Se]","{'Rb': 0.801, 'Fe': 1.602, 'Se': 2.0}",Fe-based,3
Rb0.74Fe1.6Se2,32.4,Rb0.74 Fe1.6 Se2,"[Element Rb, Element Fe, Element Se]","{'Rb': 0.74, 'Fe': 1.6, 'Se': 2.0}",Fe-based,3
Rb2Fe4Se5,32.0,Rb2 Fe4 Se5,"[Element Rb, Element Fe, Element Se]","{'Rb': 2.0, 'Fe': 4.0, 'Se': 5.0}",Fe-based,3
Rb0.76Fe1.62Se2,29.5,Rb0.76 Fe1.62 Se2,"[Element Rb, Element Fe, Element Se]","{'Rb': 0.76, 'Fe': 1.62, 'Se': 2.0}",Fe-based,3
Rb0.8Fe1.68Se2,32.0,Rb0.8 Fe1.68 Se2,"[Element Rb, Element Fe, Element Se]","{'Rb': 0.8, 'Fe': 1.68, 'Se': 2.0}",Fe-based,3
Ba1Fe1.902Co0.098As2,15.8,Ba1 Fe1.902 Co0.098 As2,"[Element Ba, Element Fe, Element Co, Element As]","{'Ba': 1.0, 'Fe': 1.902, 'Co': 0.098, 'As': 2.0}",Fe-based,4
Ba1Fe1.898Co0.102As2,18.6,Ba1 Fe1.898 Co0.102 As2,"[Element Ba, Element Fe, Element Co, Element As]","{'Ba': 1.0, 'Fe': 1.898, 'Co': 0.102, 'As': 2.0}",Fe-based,4
Ba1Fe1.86Co0.14As2,22.4,Ba1 Fe1.86 Co0.14 As2,"[Element Ba, Element Fe, Element Co, Element As]","{'Ba': 1.0, 'Fe': 1.86, 'Co': 0.14, 'As': 2.0}",Fe-based,4
Ba1Fe1.83Co0.17As2,19.6,Ba1 Fe1.83 Co0.17 As2,"[Element Ba, Element Fe, Element Co, Element As]","{'Ba': 1.0, 'Fe': 1.83, 'Co': 0.17, 'As': 2.0}",Fe-based,4
Ba1Fe1.78Co0.22As2,13.5,Ba1 Fe1.78 Co0.22 As2,"[Element Ba, Element Fe, Element Co, Element As]","{'Ba': 1.0, 'Fe': 1.78, 'Co': 0.22, 'As': 2.0}",Fe-based,4
Fe0.98Mn0.02Se0.5Te0.5,14.4,Fe0.98 Mn0.02 Se0.5 Te0.5,"[Element Fe, Element Mn, Element Se, Element Te]","{'Fe': 0.98, 'Mn': 0.02, 'Se': 0.5, 'Te': 0.5}",Fe-based,4
Ca0.33Na0.66Fe2As2,33.0,Ca0.33 Na0.66 Fe2 As2,"[Element Ca, Element Na, Element Fe, Element As]","{'Ca': 0.33, 'Na': 0.66, 'Fe': 2.0, 'As': 2.0}",Fe-based,4
K0.74Fe1.67Se1.61S0.4,32.0,K0.74 Fe1.67 Se1.61 S0.4,"[Element K, Element Fe, Element Se, Element S]","{'K': 0.74, 'Fe': 1.67, 'Se': 1.61, 'S': 0.4}",Fe-based,4
K0.85Fe2Se1.8,32.6,K0.85 Fe2 Se1.8,"[Element K, Element Fe, Element Se]","{'K': 0.85, 'Fe': 2.0, 'Se': 1.8}",Fe-based,3
K0.79Fe1.64Se2,30.4,K0.79 Fe1.64 Se2,"[Element K, Element Fe, Element Se]","{'K': 0.79, 'Fe': 1.64, 'Se': 2.0}",Fe-based,3
Fe1Se0.42Te0.58,14.8,Fe1 Se0.42 Te0.58,"[Element Fe, Element Se, Element Te]","{'Fe': 1.0, 'Se': 0.42, 'Te': 0.58}",Fe-based,3
B2Mg0.988Sc0.012,41.4,B2 Mg0.988 Sc0.012,"[Element B, Element Mg, Element Sc]","{'B': 2.0, 'Mg': 0.988, 'Sc': 0.012}",Other,3
W1F0.45O2.55,0.38,W1 F0.45 O2.55,"[Element W, Element F, Element O]","{'W': 1.0, 'F': 0.45, 'O': 2.55}",Other,3
W1F0.41O2.59,0.42,W1 F0.41 O2.59,"[Element W, Element F, Element O]","{'W': 1.0, 'F': 0.41, 'O': 2.59}",Other,3
W1F0.44O2.56,0.41,W1 F0.44 O2.56,"[Element W, Element F, Element O]","{'W': 1.0, 'F': 0.44, 'O': 2.56}",Other,3
Ca3Co4Sn13,5.75,Ca3 Co4 Sn13,"[Element Ca, Element Co, Element Sn]","{'Ca': 3.0, 'Co': 4.0, 'Sn': 13.0}",Other,3
La3Co4Sn13,2.7,La3 Co4 Sn13,"[Element La, Element Co, Element Sn]","{'La': 3.0, 'Co': 4.0, 'Sn': 13.0}",Other,3
Ca0.64Na0.36Fe2As2,17.0,Ca0.64 Na0.36 Fe2 As2,"[Element Ca, Element Na, Element Fe, Element As]","{'Ca': 0.64, 'Na': 0.36, 'Fe': 2.0, 'As': 2.0}",Fe-based,4
Ca0.34Na0.66Fe2As2,34.0,Ca0.34 Na0.66 Fe2 As2,"[Element Ca, Element Na, Element Fe, Element As]","{'Ca': 0.34, 'Na': 0.66, 'Fe': 2.0, 'As': 2.0}",Fe-based,4
Ba1Fe1.9Se3,11.0,Ba1 Fe1.9 Se3,"[Element Ba, Element Fe, Element Se]","{'Ba': 1.0, 'Fe': 1.9, 'Se': 3.0}",Fe-based,3
Fe1Te0.95Se0.05,6.7,Fe1 Te0.95 Se0.05,"[Element Fe, Element Te, Element Se]","{'Fe': 1.0, 'Te': 0.95, 'Se': 0.05}",Fe-based,3
Fe1Te0.93Se0.07,8.2,Fe1 Te0.93 Se0.07,"[Element Fe, Element Te, Element Se]","{'Fe': 1.0, 'Te': 0.93, 'Se': 0.07}",Fe-based,3
Fe1Te0.7Se0.3,12.9,Fe1 Te0.7 Se0.3,"[Element Fe, Element Te, Element Se]","{'Fe': 1.0, 'Te': 0.7, 'Se': 0.3}",Fe-based,3
Fe1Te0.4Se0.4,14.4,Fe1 Te0.4 Se0.4,"[Element Fe, Element Te, Element Se]","{'Fe': 1.0, 'Te': 0.4, 'Se': 0.4}",Fe-based,3
Nb4Ni1Si1,7.7,Nb4 Ni1 Si1,"[Element Nb, Element Ni, Element Si]","{'Nb': 4.0, 'Ni': 1.0, 'Si': 1.0}",Other,3
Nb4Co1Si1,6.0,Nb4 Co1 Si1,"[Element Nb, Element Co, Element Si]","{'Nb': 4.0, 'Co': 1.0, 'Si': 1.0}",Other,3
Nb4Fe1Si1,6.8,Nb4 Fe1 Si1,"[Element Nb, Element Fe, Element Si]","{'Nb': 4.0, 'Fe': 1.0, 'Si': 1.0}",Fe-based,3
Sr1Fe1.9Pt0.1As2,1.6,Sr1 Fe1.9 Pt0.1 As2,"[Element Sr, Element Fe, Element Pt, Element As]","{'Sr': 1.0, 'Fe': 1.9, 'Pt': 0.1, 'As': 2.0}",Fe-based,4
Sr1Fe1.85Pt0.15As2,11.7,Sr1 Fe1.85 Pt0.15 As2,"[Element Sr, Element Fe, Element Pt, Element As]","{'Sr': 1.0, 'Fe': 1.85, 'Pt': 0.15, 'As': 2.0}",Fe-based,4
Sr1Fe1.8Pt0.2As2,15.8,Sr1 Fe1.8 Pt0.2 As2,"[Element Sr, Element Fe, Element Pt, Element As]","{'Sr': 1.0, 'Fe': 1.8, 'Pt': 0.2, 'As': 2.0}",Fe-based,4
Sr1Fe1.7Pt0.3As2,12.6,Sr1 Fe1.7 Pt0.3 As2,"[Element Sr, Element Fe, Element Pt, Element As]","{'Sr': 1.0, 'Fe': 1.7, 'Pt': 0.3, 'As': 2.0}",Fe-based,4
Sr1Fe1.6Pt0.4As2,7.0,Sr1 Fe1.6 Pt0.4 As2,"[Element Sr, Element Fe, Element Pt, Element As]","{'Sr': 1.0, 'Fe': 1.6, 'Pt': 0.4, 'As': 2.0}",Fe-based,4
Ba0.4K0.6O3,7.0,Ba0.4 K0.6 O3,"[Element Ba, Element K, Element O]","{'Ba': 0.4, 'K': 0.6, 'O': 3.0}",Other,3
Sr1Fe1.75Pt0.25As2,16.3,Sr1 Fe1.75 Pt0.25 As2,"[Element Sr, Element Fe, Element Pt, Element As]","{'Sr': 1.0, 'Fe': 1.75, 'Pt': 0.25, 'As': 2.0}",Fe-based,4
Sr1Fe1.4Ru0.6As2,19.8,Sr1 Fe1.4 Ru0.6 As2,"[Element Sr, Element Fe, Element Ru, Element As]","{'Sr': 1.0, 'Fe': 1.4, 'Ru': 0.6, 'As': 2.0}",Fe-based,4
Sr1Fe1.2Ru0.8As2,17.2,Sr1 Fe1.2 Ru0.8 As2,"[Element Sr, Element Fe, Element Ru, Element As]","{'Sr': 1.0, 'Fe': 1.2, 'Ru': 0.8, 'As': 2.0}",Fe-based,4
Ba1Fe1.8Ir0.2As2,27.4,Ba1 Fe1.8 Ir0.2 As2,"[Element Ba, Element Fe, Element Ir, Element As]","{'Ba': 1.0, 'Fe': 1.8, 'Ir': 0.2, 'As': 2.0}",Fe-based,4
Ba1Fe1.7Ir0.3As2,27.0,Ba1 Fe1.7 Ir0.3 As2,"[Element Ba, Element Fe, Element Ir, Element As]","{'Ba': 1.0, 'Fe': 1.7, 'Ir': 0.3, 'As': 2.0}",Fe-based,4
Ba1Fe1.6Ir0.4As2,24.5,Ba1 Fe1.6 Ir0.4 As2,"[Element Ba, Element Fe, Element Ir, Element As]","{'Ba': 1.0, 'Fe': 1.6, 'Ir': 0.4, 'As': 2.0}",Fe-based,4
Sr1Si1.9Ni0.1,2.3,Sr1 Si1.9 Ni0.1,"[Element Sr, Element Si, Element Ni]","{'Sr': 1.0, 'Si': 1.9, 'Ni': 0.1}",Other,3
Sr1Si1.8Ni0.2,2.6,Sr1 Si1.8 Ni0.2,"[Element Sr, Element Si, Element Ni]","{'Sr': 1.0, 'Si': 1.8, 'Ni': 0.2}",Other,3
Sr1Si1.7Ni0.3,2.8,Sr1 Si1.7 Ni0.3,"[Element Sr, Element Si, Element Ni]","{'Sr': 1.0, 'Si': 1.7, 'Ni': 0.3}",Other,3
Al20.3V2,1.49,Al20.3 V2,"[Element Al, Element V]","{'Al': 20.3, 'V': 2.0}",Other,2
Ga0.2V2Al20,1.66,Ga0.2 V2 Al20,"[Element Ga, Element V, Element Al]","{'Ga': 0.2, 'V': 2.0, 'Al': 20.0}",Other,3
Sr0.8Eu0.2Fe1.78Co0.22As2,18.0,Sr0.8 Eu0.2 Fe1.78 Co0.22 As2,"[Element Sr, Element Eu, Element Fe, Element Co, Element As]","{'Sr': 0.8, 'Eu': 0.2, 'Fe': 1.78, 'Co': 0.22, 'As': 2.0}",Fe-based,5
Sr0.54Eu0.46Fe1.78Co0.22As2,16.2,Sr0.54 Eu0.46 Fe1.78 Co0.22 As2,"[Element Sr, Element Eu, Element Fe, Element Co, Element As]","{'Sr': 0.54, 'Eu': 0.46, 'Fe': 1.78, 'Co': 0.22, 'As': 2.0}",Fe-based,5
La1Fe1As1O0.89,27.8,La1 Fe1 As1 O0.89,"[Element La, Element Fe, Element As, Element O]","{'La': 1.0, 'Fe': 1.0, 'As': 1.0, 'O': 0.89}",Fe-based,4
Pr1Fe1As1O0.896,44.4,Pr1 Fe1 As1 O0.896,"[Element Pr, Element Fe, Element As, Element O]","{'Pr': 1.0, 'Fe': 1.0, 'As': 1.0, 'O': 0.896}",Fe-based,4
Ga0.05V2Al20,1.53,Ga0.05 V2 Al20,"[Element Ga, Element V, Element Al]","{'Ga': 0.05, 'V': 2.0, 'Al': 20.0}",Other,3
Ga0.1V2Al20,1.53,Ga0.1 V2 Al20,"[Element Ga, Element V, Element Al]","{'Ga': 0.1, 'V': 2.0, 'Al': 20.0}",Other,3
Ga0.15V2Al20,1.53,Ga0.15 V2 Al20,"[Element Ga, Element V, Element Al]","{'Ga': 0.15, 'V': 2.0, 'Al': 20.0}",Other,3
Ga0.3V2Al20,1.6,Ga0.3 V2 Al20,"[Element Ga, Element V, Element Al]","{'Ga': 0.3, 'V': 2.0, 'Al': 20.0}",Other,3
Al20.3V20,1.49,Al20.3 V20,"[Element Al, Element V]","{'Al': 20.3, 'V': 20.0}",Other,2
Fe1Te0.65Se0.35,15.0,Fe1 Te0.65 Se0.35,"[Element Fe, Element Te, Element Se]","{'Fe': 1.0, 'Te': 0.65, 'Se': 0.35}",Fe-based,3
Ba1Ti2Sb2O1,1.2,Ba1 Ti2 Sb2 O1,"[Element Ba, Element Ti, Element Sb, Element O]","{'Ba': 1.0, 'Ti': 2.0, 'Sb': 2.0, 'O': 1.0}",Other,4
Fe1Se0.82Cl0.18,10.5,Fe1 Se0.82 Cl0.18,"[Element Fe, Element Se, Element Cl]","{'Fe': 1.0, 'Se': 0.82, 'Cl': 0.18}",Fe-based,3
Fe1Se0.2Te0.8,12.8,Fe1 Se0.2 Te0.8,"[Element Fe, Element Se, Element Te]","{'Fe': 1.0, 'Se': 0.2, 'Te': 0.8}",Fe-based,3
La2Ni1Ge3,0.394,La2 Ni1 Ge3,"[Element La, Element Ni, Element Ge]","{'La': 2.0, 'Ni': 1.0, 'Ge': 3.0}",Other,3
Ca1.867Na0.133Cu1Cl2O2,20.0,Ca1.867 Na0.133 Cu1 Cl2 O2,"[Element Ca, Element Na, Element Cu, Element Cl, Element O]","{'Ca': 1.867, 'Na': 0.133, 'Cu': 1.0, 'Cl': 2.0, 'O': 2.0}",Cuprates,5
Ca1.843Na0.157Cu1Cl2O2,25.0,Ca1.843 Na0.157 Cu1 Cl2 O2,"[Element Ca, Element Na, Element Cu, Element Cl, Element O]","{'Ca': 1.843, 'Na': 0.157, 'Cu': 1.0, 'Cl': 2.0, 'O': 2.0}",Cuprates,5
Pr2Ba4Cu7O14.06,30.5,Pr2 Ba4 Cu7 O14.06,"[Element Pr, Element Ba, Element Cu, Element O]","{'Pr': 2.0, 'Ba': 4.0, 'Cu': 7.0, 'O': 14.06}",Cuprates,4
Pr2Ba4Cu7O14.3,21.0,Pr2 Ba4 Cu7 O14.3,"[Element Pr, Element Ba, Element Cu, Element O]","{'Pr': 2.0, 'Ba': 4.0, 'Cu': 7.0, 'O': 14.3}",Cuprates,4
Pb7Bi3,10.3,Pb7 Bi3,"[Element Pb, Element Bi]","{'Pb': 7.0, 'Bi': 3.0}",Other,2
Ba1Fe1.93Ni0.07As2,17.0,Ba1 Fe1.93 Ni0.07 As2,"[Element Ba, Element Fe, Element Ni, Element As]","{'Ba': 1.0, 'Fe': 1.93, 'Ni': 0.07, 'As': 2.0}",Fe-based,4
Ca10Pt5.8Fe8.2As18,33.65,Ca10 Pt5.8 Fe8.2 As18,"[Element Ca, Element Pt, Element Fe, Element As]","{'Ca': 10.0, 'Pt': 5.8, 'Fe': 8.2, 'As': 18.0}",Fe-based,4
Ca10Pt4.8Fe9.2As18,13.7,Ca10 Pt4.8 Fe9.2 As18,"[Element Ca, Element Pt, Element Fe, Element As]","{'Ca': 10.0, 'Pt': 4.8, 'Fe': 9.2, 'As': 18.0}",Fe-based,4
Fe2As2Ca5Sc2Ti2O10.5,33.0,Fe2 As2 Ca5 Sc2 Ti2 O10.5,"[Element Fe, Element As, Element Ca, Element Sc, Element Ti, Element O]","{'Fe': 2.0, 'As': 2.0, 'Ca': 5.0, 'Sc': 2.0, 'Ti': 2.0, 'O': 10.5}",Fe-based,6
Fe2As2Ca6Al1Ti3O11,32.0,Fe2 As2 Ca6 Al1 Ti3 O11,"[Element Fe, Element As, Element Ca, Element Al, Element Ti, Element O]","{'Fe': 2.0, 'As': 2.0, 'Ca': 6.0, 'Al': 1.0, 'Ti': 3.0, 'O': 11.0}",Fe-based,6
Fe2As2Ca5Mg1Ti3O9.5,36.0,Fe2 As2 Ca5 Mg1 Ti3 O9.5,"[Element Fe, Element As, Element Ca, Element Mg, Element Ti, Element O]","{'Fe': 2.0, 'As': 2.0, 'Ca': 5.0, 'Mg': 1.0, 'Ti': 3.0, 'O': 9.5}",Fe-based,6
Ba1Fe2As1.5P0.5,29.9,Ba1 Fe2 As1.5 P0.5,"[Element Ba, Element Fe, Element As, Element P]","{'Ba': 1.0, 'Fe': 2.0, 'As': 1.5, 'P': 0.5}",Fe-based,4
Mg1.2C1.6Ni3,7.3,Mg1.2 C1.6 Ni3,"[Element Mg, Element C, Element Ni]","{'Mg': 1.2, 'C': 1.6, 'Ni': 3.0}",Other,3
Mg1.2C1.52B0.08Ni3,6.9,Mg1.2 C1.52 B0.08 Ni3,"[Element Mg, Element C, Element B, Element Ni]","{'Mg': 1.2, 'C': 1.52, 'B': 0.08, 'Ni': 3.0}",Other,4
Mg1.2C1.44B0.16Ni3,6.6,Mg1.2 C1.44 B0.16 Ni3,"[Element Mg, Element C, Element B, Element Ni]","{'Mg': 1.2, 'C': 1.44, 'B': 0.16, 'Ni': 3.0}",Other,4
Ba1Fe1.988Mo0.012As2,16.3,Ba1 Fe1.988 Mo0.012 As2,"[Element Ba, Element Fe, Element Mo, Element As]","{'Ba': 1.0, 'Fe': 1.988, 'Mo': 0.012, 'As': 2.0}",Fe-based,4
Ba1Fe1.982Mo0.018As2,16.7,Ba1 Fe1.982 Mo0.018 As2,"[Element Ba, Element Fe, Element Mo, Element As]","{'Ba': 1.0, 'Fe': 1.982, 'Mo': 0.018, 'As': 2.0}",Fe-based,4
Ba1Fe1.974Mo0.026As2,12.5,Ba1 Fe1.974 Mo0.026 As2,"[Element Ba, Element Fe, Element Mo, Element As]","{'Ba': 1.0, 'Fe': 1.974, 'Mo': 0.026, 'As': 2.0}",Fe-based,4
Ba1Fe1.948Mo0.052As2,7.4,Ba1 Fe1.948 Mo0.052 As2,"[Element Ba, Element Fe, Element Mo, Element As]","{'Ba': 1.0, 'Fe': 1.948, 'Mo': 0.052, 'As': 2.0}",Fe-based,4
Ba1Fe1.946Mo0.056As2,4.9,Ba1 Fe1.946 Mo0.056 As2,"[Element Ba, Element Fe, Element Mo, Element As]","{'Ba': 1.0, 'Fe': 1.946, 'Mo': 0.056, 'As': 2.0}",Fe-based,4
Ca10Pt3.28Fe9.72As18,6.0,Ca10 Pt3.28 Fe9.72 As18,"[Element Ca, Element Pt, Element Fe, Element As]","{'Ca': 10.0, 'Pt': 3.28, 'Fe': 9.72, 'As': 18.0}",Fe-based,4
Ca10Pt3.41Fe9.59As18,7.38,Ca10 Pt3.41 Fe9.59 As18,"[Element Ca, Element Pt, Element Fe, Element As]","{'Ca': 10.0, 'Pt': 3.41, 'Fe': 9.59, 'As': 18.0}",Fe-based,4
Ca10Pt3.42Fe9.58As18,8.78,Ca10 Pt3.42 Fe9.58 As18,"[Element Ca, Element Pt, Element Fe, Element As]","{'Ca': 10.0, 'Pt': 3.42, 'Fe': 9.58, 'As': 18.0}",Fe-based,4
Ca10Pt3.97Fe9.03As18,10.5,Ca10 Pt3.97 Fe9.03 As18,"[Element Ca, Element Pt, Element Fe, Element As]","{'Ca': 10.0, 'Pt': 3.97, 'Fe': 9.03, 'As': 18.0}",Fe-based,4
Eu0.64K0.36Fe2As2,27.6,Eu0.64 K0.36 Fe2 As2,"[Element Eu, Element K, Element Fe, Element As]","{'Eu': 0.64, 'K': 0.36, 'Fe': 2.0, 'As': 2.0}",Fe-based,4
Eu0.56K0.44Fe2As2,28.7,Eu0.56 K0.44 Fe2 As2,"[Element Eu, Element K, Element Fe, Element As]","{'Eu': 0.56, 'K': 0.44, 'Fe': 2.0, 'As': 2.0}",Fe-based,4
Eu0.51K0.49Fe2As2,32.5,Eu0.51 K0.49 Fe2 As2,"[Element Eu, Element K, Element Fe, Element As]","{'Eu': 0.51, 'K': 0.49, 'Fe': 2.0, 'As': 2.0}",Fe-based,4
Eu0.48K0.52Fe2As2,30.0,Eu0.48 K0.52 Fe2 As2,"[Element Eu, Element K, Element Fe, Element As]","{'Eu': 0.48, 'K': 0.52, 'Fe': 2.0, 'As': 2.0}",Fe-based,4
Eu1Fe2As1.58P0.42,29.0,Eu1 Fe2 As1.58 P0.42,"[Element Eu, Element Fe, Element As, Element P]","{'Eu': 1.0, 'Fe': 2.0, 'As': 1.58, 'P': 0.42}",Fe-based,4
Ca0.835La0.165Fe2As2,41.2,Ca0.835 La0.165 Fe2 As2,"[Element Ca, Element La, Element Fe, Element As]","{'Ca': 0.835, 'La': 0.165, 'Fe': 2.0, 'As': 2.0}",Fe-based,4
Ca0.719La0.281Fe2As2,31.7,Ca0.719 La0.281 Fe2 As2,"[Element Ca, Element La, Element Fe, Element As]","{'Ca': 0.719, 'La': 0.281, 'Fe': 2.0, 'As': 2.0}",Fe-based,4
Ca0.88Ce0.12Fe2As2,33.2,Ca0.88 Ce0.12 Fe2 As2,"[Element Ca, Element Ce, Element Fe, Element As]","{'Ca': 0.88, 'Ce': 0.12, 'Fe': 2.0, 'As': 2.0}",Fe-based,4
Ca0.78Ce0.22Fe2As2,36.2,Ca0.78 Ce0.22 Fe2 As2,"[Element Ca, Element Ce, Element Fe, Element As]","{'Ca': 0.78, 'Ce': 0.22, 'Fe': 2.0, 'As': 2.0}",Fe-based,4
Ca0.902Pr0.098Fe2As2,40.0,Ca0.902 Pr0.098 Fe2 As2,"[Element Ca, Element Pr, Element Fe, Element As]","{'Ca': 0.902, 'Pr': 0.098, 'Fe': 2.0, 'As': 2.0}",Fe-based,4
Ca0.858Pr0.142Fe2As2,45.3,Ca0.858 Pr0.142 Fe2 As2,"[Element Ca, Element Pr, Element Fe, Element As]","{'Ca': 0.858, 'Pr': 0.142, 'Fe': 2.0, 'As': 2.0}",Fe-based,4
Ba1Fe1.55Ru0.45As2,8.18,Ba1 Fe1.55 Ru0.45 As2,"[Element Ba, Element Fe, Element Ru, Element As]","{'Ba': 1.0, 'Fe': 1.55, 'Ru': 0.45, 'As': 2.0}",Fe-based,4
Ba1Fe1.32Ru0.68As2,14.5,Ba1 Fe1.32 Ru0.68 As2,"[Element Ba, Element Fe, Element Ru, Element As]","{'Ba': 1.0, 'Fe': 1.32, 'Ru': 0.68, 'As': 2.0}",Fe-based,4
Ba1Fe1.2Ru0.8As2,5.02,Ba1 Fe1.2 Ru0.8 As2,"[Element Ba, Element Fe, Element Ru, Element As]","{'Ba': 1.0, 'Fe': 1.2, 'Ru': 0.8, 'As': 2.0}",Fe-based,4
Sr1Ni2Ge2,0.895,Sr1 Ni2 Ge2,"[Element Sr, Element Ni, Element Ge]","{'Sr': 1.0, 'Ni': 2.0, 'Ge': 2.0}",Other,3
K0.8Fe1.7S1Se1,24.5,K0.8 Fe1.7 S1 Se1,"[Element K, Element Fe, Element S, Element Se]","{'K': 0.8, 'Fe': 1.7, 'S': 1.0, 'Se': 1.0}",Fe-based,4
La1Ni2P2,2.6,La1 Ni2 P2,"[Element La, Element Ni, Element P]","{'La': 1.0, 'Ni': 2.0, 'P': 2.0}",Other,3
Rb0.77Fe1.61Se2,32.6,Rb0.77 Fe1.61 Se2,"[Element Rb, Element Fe, Element Se]","{'Rb': 0.77, 'Fe': 1.61, 'Se': 2.0}",Fe-based,3
K0.74Fe1.66Se2,31.0,K0.74 Fe1.66 Se2,"[Element K, Element Fe, Element Se]","{'K': 0.74, 'Fe': 1.66, 'Se': 2.0}",Fe-based,3