chemical_formula,Tc,composition,elements,stoichiometry,Category,num_elements
Sm1Fe0.64Ru0.36As1F0.15O0.85,15.9,Sm1 Fe0.64 Ru0.36 As1 F0.15 O0.85,"[Element Sm, Element Fe, Element Ru, Element As, Element F, Element O]","{'Sm': 1.0, 'Fe': 0.64, 'Ru': 0.36, 'As': 1.0, 'F': 0.15, 'O': 0.85}",Fe-based,6
Mg1.995Mn0.005B2,37.7,Mg1.995 Mn0.005 B2,"[Element Mg, Element Mn, Element B]","{'Mg': 1.995, 'Mn': 0.005, 'B': 2.0}",Other,3
Mg1.99Mn0.01B2,37.6,Mg1.99 Mn0.01 B2,"[Element Mg, Element Mn, Element B]","{'Mg': 1.99, 'Mn': 0.01, 'B': 2.0}",Other,3
Mg1.985Mn0.015B2,37.4,Mg1.985 Mn0.015 B2,"[Element Mg, Element Mn, Element B]","{'Mg': 1.985, 'Mn': 0.015, 'B': 2.0}",Other,3
Mg1.98Mn0.02B2,36.9,Mg1.98 Mn0.02 B2,"[Element Mg, Element Mn, Element B]","{'Mg': 1.98, 'Mn': 0.02, 'B': 2.0}",Other,3
Fe1.14Te0.91S0.09,8.5,Fe1.14 Te0.91 S0.09,"[Element Fe, Element Te, Element S]","{'Fe': 1.14, 'Te': 0.91, 'S': 0.09}",Fe-based,3
Fe1Se0.99,6.99,Fe1 Se0.99,"[Element Fe, Element Se]","{'Fe': 1.0, 'Se': 0.99}",Fe-based,2
Cu0.044Ti1Se2,1.5,Cu0.044 Ti1 Se2,"[Element Cu, Element Ti, Element Se]","{'Cu': 0.044, 'Ti': 1.0, 'Se': 2.0}",Other,3
Cu0.057Ti1Se2,3.49,Cu0.057 Ti1 Se2,"[Element Cu, Element Ti, Element Se]","{'Cu': 0.057, 'Ti': 1.0, 'Se': 2.0}",Other,3
Cu0.064Ti1Se2,3.62,Cu0.064 Ti1 Se2,"[Element Cu, Element Ti, Element Se]","{'Cu': 0.064, 'Ti': 1.0, 'Se': 2.0}",Other,3
Cu0.081Ti1Se2,4.17,Cu0.081 Ti1 Se2,"[Element Cu, Element Ti, Element Se]","{'Cu': 0.081, 'Ti': 1.0, 'Se': 2.0}",Other,3
Ba0.68K0.32Fe2As2,38.5,Ba0.68 K0.32 Fe2 As2,"[Element Ba, Element K, Element Fe, Element As]","{'Ba': 0.68, 'K': 0.32, 'Fe': 2.0, 'As': 2.0}",Fe-based,4
Ba0.2K0.8Fe2As2,13.9,Ba0.2 K0.8 Fe2 As2,"[Element Ba, Element K, Element Fe, Element As]","{'Ba': 0.2, 'K': 0.8, 'Fe': 2.0, 'As': 2.0}",Fe-based,4
Ba1Fe1.75Co0.25As2,22.0,Ba1 Fe1.75 Co0.25 As2,"[Element Ba, Element Fe, Element Co, Element As]","{'Ba': 1.0, 'Fe': 1.75, 'Co': 0.25, 'As': 2.0}",Fe-based,4
Ca1Fe1.898Co0.102As2,18.5,Ca1 Fe1.898 Co0.102 As2,"[Element Ca, Element Fe, Element Co, Element As]","{'Ca': 1.0, 'Fe': 1.898, 'Co': 0.102, 'As': 2.0}",Fe-based,4
Ca1Fe1.888Co0.112As2,19.0,Ca1 Fe1.888 Co0.112 As2,"[Element Ca, Element Fe, Element Co, Element As]","{'Ca': 1.0, 'Fe': 1.888, 'Co': 0.112, 'As': 2.0}",Fe-based,4
Ca1Fe1.87Co0.13As2,17.2,Ca1 Fe1.87 Co0.13 As2,"[Element Ca, Element Fe, Element Co, Element As]","{'Ca': 1.0, 'Fe': 1.87, 'Co': 0.13, 'As': 2.0}",Fe-based,4
Ca1Fe1.854Co0.146As2,16.8,Ca1 Fe1.854 Co0.146 As2,"[Element Ca, Element Fe, Element Co, Element As]","{'Ca': 1.0, 'Fe': 1.854, 'Co': 0.146, 'As': 2.0}",Fe-based,4
Pb1.16Ti2Se5.16,2.3,Pb1.16 Ti2 Se5.16,"[Element Pb, Element Ti, Element Se]","{'Pb': 1.16, 'Ti': 2.0, 'Se': 5.16}",Other,3
Pb1.12Nb2Se5.12,2.9,Pb1.12 Nb2 Se5.12,"[Element Pb, Element Nb, Element Se]","{'Pb': 1.12, 'Nb': 2.0, 'Se': 5.12}",Other,3
Bi1.1Nb1Se3.1,2.36,Bi1.1 Nb1 Se3.1,"[Element Bi, Element Nb, Element Se]","{'Bi': 1.1, 'Nb': 1.0, 'Se': 3.1}",Other,3
Bi1.1Nb1S3.1,0.415,Bi1.1 Nb1 S3.1,"[Element Bi, Element Nb, Element S]","{'Bi': 1.1, 'Nb': 1.0, 'S': 3.1}",Other,3
La1.14Nb1Se3.14,1.32,La1.14 Nb1 Se3.14,"[Element La, Element Nb, Element Se]","{'La': 1.14, 'Nb': 1.0, 'Se': 3.14}",Other,3
La1.14Nb2Se5.14,5.3,La1.14 Nb2 Se5.14,"[Element La, Element Nb, Element Se]","{'La': 1.14, 'Nb': 2.0, 'Se': 5.14}",Other,3
Ba1Fe1.678Ru0.322As2,9.31,Ba1 Fe1.678 Ru0.322 As2,"[Element Ba, Element Fe, Element Ru, Element As]","{'Ba': 1.0, 'Fe': 1.678, 'Ru': 0.322, 'As': 2.0}",Fe-based,4
Ba1Fe1.58Ru0.42As2,14.125,Ba1 Fe1.58 Ru0.42 As2,"[Element Ba, Element Fe, Element Ru, Element As]","{'Ba': 1.0, 'Fe': 1.58, 'Ru': 0.42, 'As': 2.0}",Fe-based,4
Ba1Fe1.52Ru0.48As2,15.55,Ba1 Fe1.52 Ru0.48 As2,"[Element Ba, Element Fe, Element Ru, Element As]","{'Ba': 1.0, 'Fe': 1.52, 'Ru': 0.48, 'As': 2.0}",Fe-based,4
Ba1Fe1.42Ru0.58As2,15.6,Ba1 Fe1.42 Ru0.58 As2,"[Element Ba, Element Fe, Element Ru, Element As]","{'Ba': 1.0, 'Fe': 1.42, 'Ru': 0.58, 'As': 2.0}",Fe-based,4
Ba1Fe1.28Ru0.72As2,8.95,Ba1 Fe1.28 Ru0.72 As2,"[Element Ba, Element Fe, Element Ru, Element As]","{'Ba': 1.0, 'Fe': 1.28, 'Ru': 0.72, 'As': 2.0}",Fe-based,4
Rh16Ir1S15,4.08,Rh16 Ir1 S15,"[Element Rh, Element Ir, Element S]","{'Rh': 16.0, 'Ir': 1.0, 'S': 15.0}",Other,3
Rh15Ir2S15,3.5,Rh15 Ir2 S15,"[Element Rh, Element Ir, Element S]","{'Rh': 15.0, 'Ir': 2.0, 'S': 15.0}",Other,3
Ba1Fe1.916Co0.084As2,15.5,Ba1 Fe1.916 Co0.084 As2,"[Element Ba, Element Fe, Element Co, Element As]","{'Ba': 1.0, 'Fe': 1.916, 'Co': 0.084, 'As': 2.0}",Fe-based,4
Ba1Fe1.892Co0.108As2,20.5,Ba1 Fe1.892 Co0.108 As2,"[Element Ba, Element Fe, Element Co, Element As]","{'Ba': 1.0, 'Fe': 1.892, 'Co': 0.108, 'As': 2.0}",Fe-based,4
Ba1Fe1.874Co0.126As2,23.4,Ba1 Fe1.874 Co0.126 As2,"[Element Ba, Element Fe, Element Co, Element As]","{'Ba': 1.0, 'Fe': 1.874, 'Co': 0.126, 'As': 2.0}",Fe-based,4
Ba1Fe1.824Co0.176As2,21.1,Ba1 Fe1.824 Co0.176 As2,"[Element Ba, Element Fe, Element Co, Element As]","{'Ba': 1.0, 'Fe': 1.824, 'Co': 0.176, 'As': 2.0}",Fe-based,4
Ba1Fe1.3Ru0.7As2,19.5,Ba1 Fe1.3 Ru0.7 As2,"[Element Ba, Element Fe, Element Ru, Element As]","{'Ba': 1.0, 'Fe': 1.3, 'Ru': 0.7, 'As': 2.0}",Fe-based,4
Ba1Fe1.64Ru0.36As2,8.43,Ba1 Fe1.64 Ru0.36 As2,"[Element Ba, Element Fe, Element Ru, Element As]","{'Ba': 1.0, 'Fe': 1.64, 'Ru': 0.36, 'As': 2.0}",Fe-based,4
Ba1Fe1.48Ru0.52As2,18.9,Ba1 Fe1.48 Ru0.52 As2,"[Element Ba, Element Fe, Element Ru, Element As]","{'Ba': 1.0, 'Fe': 1.48, 'Ru': 0.52, 'As': 2.0}",Fe-based,4
Ba1Fe1.24Ru0.76As2,7.1,Ba1 Fe1.24 Ru0.76 As2,"[Element Ba, Element Fe, Element Ru, Element As]","{'Ba': 1.0, 'Fe': 1.24, 'Ru': 0.76, 'As': 2.0}",Fe-based,4
Ba1Fe1.856Cu0.088As2,2.15,Ba1 Fe1.856 Cu0.088 As2,"[Element Ba, Element Fe, Element Cu, Element As]","{'Ba': 1.0, 'Fe': 1.856, 'Cu': 0.088, 'As': 2.0}",Fe-based,4
Ba1Fe1.936Co0.044Cu0.02As2,2.35,Ba1 Fe1.936 Co0.044 Cu0.02 As2,"[Element Ba, Element Fe, Element Co, Element Cu, Element As]","{'Ba': 1.0, 'Fe': 1.936, 'Co': 0.044, 'Cu': 0.02, 'As': 2.0}",Fe-based,5
Ba1Fe1.918Co0.044Cu0.038As2,8.7,Ba1 Fe1.918 Co0.044 Cu0.038 As2,"[Element Ba, Element Fe, Element Co, Element Cu, Element As]","{'Ba': 1.0, 'Fe': 1.918, 'Co': 0.044, 'Cu': 0.038, 'As': 2.0}",Fe-based,5
Ba1Fe1.906Co0.042Cu0.052As2,11.6,Ba1 Fe1.906 Co0.042 Cu0.052 As2,"[Element Ba, Element Fe, Element Co, Element Cu, Element As]","{'Ba': 1.0, 'Fe': 1.906, 'Co': 0.042, 'Cu': 0.052, 'As': 2.0}",Fe-based,5
Ba1Fe1.894Co0.042Cu0.064As2,9.6,Ba1 Fe1.894 Co0.042 Cu0.064 As2,"[Element Ba, Element Fe, Element Co, Element Cu, Element As]","{'Ba': 1.0, 'Fe': 1.894, 'Co': 0.042, 'Cu': 0.064, 'As': 2.0}",Fe-based,5
Ba1Fe1.872Co0.042Cu0.086As2,4.3,Ba1 Fe1.872 Co0.042 Cu0.086 As2,"[Element Ba, Element Fe, Element Co, Element Cu, Element As]","{'Ba': 1.0, 'Fe': 1.872, 'Co': 0.042, 'Cu': 0.086, 'As': 2.0}",Fe-based,5
Ba1Fe1.889Co0.102Cu0.009As2,20.95,Ba1 Fe1.889 Co0.102 Cu0.009 As2,"[Element Ba, Element Fe, Element Co, Element Cu, Element As]","{'Ba': 1.0, 'Fe': 1.889, 'Co': 0.102, 'Cu': 0.009, 'As': 2.0}",Fe-based,5
Ba1Fe1.868Co0.094Cu0.038As2,15.55,Ba1 Fe1.868 Co0.094 Cu0.038 As2,"[Element Ba, Element Fe, Element Co, Element Cu, Element As]","{'Ba': 1.0, 'Fe': 1.868, 'Co': 0.094, 'Cu': 0.038, 'As': 2.0}",Fe-based,5
Ba1Fe1.838Co0.094Cu0.068As2,5.3,Ba1 Fe1.838 Co0.094 Cu0.068 As2,"[Element Ba, Element Fe, Element Co, Element Cu, Element As]","{'Ba': 1.0, 'Fe': 1.838, 'Co': 0.094, 'Cu': 0.068, 'As': 2.0}",Fe-based,5
B0.057Si0.943,0.34,B0.057 Si0.943,"[Element B, Element Si]","{'B': 0.057, 'Si': 0.943}",Other,2
B0.039C0.961Si1,1.4,B0.039 C0.961 Si1,"[Element B, Element C, Element Si]","{'B': 0.039, 'C': 0.961, 'Si': 1.0}",Other,3
B0.978C0.022Si1,1.35,B0.978 C0.022 Si1,"[Element B, Element C, Element Si]","{'B': 0.978, 'C': 0.022, 'Si': 1.0}",Other,3
B0.048C0.952,6.6,B0.048 C0.952,"[Element B, Element C]","{'B': 0.048, 'C': 0.952}",Other,2
B1I3,1.86,B1 I3,"[Element B, Element I]","{'B': 1.0, 'I': 3.0}",Other,2
Sm0.9Th0.1Fe1As1O1,51.4,Sm0.9 Th0.1 Fe1 As1 O1,"[Element Sm, Element Th, Element Fe, Element As, Element O]","{'Sm': 0.9, 'Th': 0.1, 'Fe': 1.0, 'As': 1.0, 'O': 1.0}",Fe-based,5
Sm0.89Th0.11Fe1As1O1,48.9,Sm0.89 Th0.11 Fe1 As1 O1,"[Element Sm, Element Th, Element Fe, Element As, Element O]","{'Sm': 0.89, 'Th': 0.11, 'Fe': 1.0, 'As': 1.0, 'O': 1.0}",Fe-based,5
Sm0.65Th0.35Fe1As1O1,53.0,Sm0.65 Th0.35 Fe1 As1 O1,"[Element Sm, Element Th, Element Fe, Element As, Element O]","{'Sm': 0.65, 'Th': 0.35, 'Fe': 1.0, 'As': 1.0, 'O': 1.0}",Fe-based,5
Ba1Fe2As1.3P0.7,30.5,Ba1 Fe2 As1.3 P0.7,"[Element Ba, Element Fe, Element As, Element P]","{'Ba': 1.0, 'Fe': 2.0, 'As': 1.3, 'P': 0.7}",Fe-based,4
Sm1Fe0.94Ir0.06As1O1,18.0,Sm1 Fe0.94 Ir0.06 As1 O1,"[Element Sm, Element Fe, Element Ir, Element As, Element O]","{'Sm': 1.0, 'Fe': 0.94, 'Ir': 0.06, 'As': 1.0, 'O': 1.0}",Fe-based,5
Sm1Fe0.89Ir0.11As1O1,18.3,Sm1 Fe0.89 Ir0.11 As1 O1,"[Element Sm, Element Fe, Element Ir, Element As, Element O]","{'Sm': 1.0, 'Fe': 0.89, 'Ir': 0.11, 'As': 1.0, 'O': 1.0}",Fe-based,5
Sm1Fe0.84Ir0.16As1O1,17.3,Sm1 Fe0.84 Ir0.16 As1 O1,"[Element Sm, Element Fe, Element Ir, Element As, Element O]","{'Sm': 1.0, 'Fe': 0.84, 'Ir': 0.16, 'As': 1.0, 'O': 1.0}",Fe-based,5
Ce1Co1In4.92Sn0.08,1.22,Ce1 Co1 In4.92 Sn0.08,"[Element Ce, Element Co, Element In, Element Sn]","{'Ce': 1.0, 'Co': 1.0, 'In': 4.92, 'Sn': 0.08}",Other,4
Ce1Co1In4.9Sn0.1,1.02,Ce1 Co1 In4.9 Sn0.1,"[Element Ce, Element Co, Element In, Element Sn]","{'Ce': 1.0, 'Co': 1.0, 'In': 4.9, 'Sn': 0.1}",Other,4
Ce1Co1In4.86Sn0.14,0.556,Ce1 Co1 In4.86 Sn0.14,"[Element Ce, Element Co, Element In, Element Sn]","{'Ce': 1.0, 'Co': 1.0, 'In': 4.86, 'Sn': 0.14}",Other,4
Fe1.12Se0.3Te0.7,13.7,Fe1.12 Se0.3 Te0.7,"[Element Fe, Element Se, Element Te]","{'Fe': 1.12, 'Se': 0.3, 'Te': 0.7}",Fe-based,3
Fe1.04Se0.33Te0.67,14.1,Fe1.04 Se0.33 Te0.67,"[Element Fe, Element Se, Element Te]","{'Fe': 1.04, 'Se': 0.33, 'Te': 0.67}",Fe-based,3
Fe1.05Se0.15Te0.85,14.1,Fe1.05 Se0.15 Te0.85,"[Element Fe, Element Se, Element Te]","{'Fe': 1.05, 'Se': 0.15, 'Te': 0.85}",Fe-based,3
Mg0.99Fe0.01B2,38.2,Mg0.99 Fe0.01 B2,"[Element Mg, Element Fe, Element B]","{'Mg': 0.99, 'Fe': 0.01, 'B': 2.0}",Fe-based,3
Mg0.95Fe0.05B2,29.5,Mg0.95 Fe0.05 B2,"[Element Mg, Element Fe, Element B]","{'Mg': 0.95, 'Fe': 0.05, 'B': 2.0}",Fe-based,3
Tl0.25Li0.25Ba2Ca2Cu3.5O7.955,117.0,Tl0.25 Li0.25 Ba2 Ca2 Cu3.5 O7.955,"[Element Tl, Element Li, Element Ba, Element Ca, Element Cu, Element O]","{'Tl': 0.25, 'Li': 0.25, 'Ba': 2.0, 'Ca': 2.0, 'Cu': 3.5, 'O': 7.955}",Cuprates,6
Tl0.25Li0.25Ba2Ca2Cu3Si0.5O7.835,111.0,Tl0.25 Li0.25 Ba2 Ca2 Cu3 Si0.5 O7.835,"[Element Tl, Element Li, Element Ba, Element Ca, Element Cu, Element Si, Element O]","{'Tl': 0.25, 'Li': 0.25, 'Ba': 2.0, 'Ca': 2.0, 'Cu': 3.0, 'Si': 0.5, 'O': 7.835}",Cuprates,7
Tl0.25Li0.25Ba2Ca2Cu2.5Si1O7.853,113.0,Tl0.25 Li0.25 Ba2 Ca2 Cu2.5 Si1 O7.853,"[Element Tl, Element Li, Element Ba, Element Ca, Element Cu, Element Si, Element O]","{'Tl': 0.25, 'Li': 0.25, 'Ba': 2.0, 'Ca': 2.0, 'Cu': 2.5, 'Si': 1.0, 'O': 7.853}",Cuprates,7
Tl0.25Li0.25Ba2Ca2Cu2.25Si1.25O7.719,99.0,Tl0.25 Li0.25 Ba2 Ca2 Cu2.25 Si1.25 O7.719,"[Element Tl, Element Li, Element Ba, Element Ca, Element Cu, Element Si, Element O]","{'Tl': 0.25, 'Li': 0.25, 'Ba': 2.0, 'Ca': 2.0, 'Cu': 2.25, 'Si': 1.25, 'O': 7.719}",Cuprates,7
Ti2In1N1,7.3,Ti2 In1 N1,"[Element Ti, Element In, Element N]","{'Ti': 2.0, 'In': 1.0, 'N': 1.0}",Other,3
Sm1Fe1As1F0.05O0.95,39.0,Sm1 Fe1 As1 F0.05 O0.95,"[Element Sm, Element Fe, Element As, Element F, Element O]","{'Sm': 1.0, 'Fe': 1.0, 'As': 1.0, 'F': 0.05, 'O': 0.95}",Fe-based,5
Sm1Fe1As1F0.6O0.6,55.0,Sm1 Fe1 As1 F0.6 O0.6,"[Element Sm, Element Fe, Element As, Element F, Element O]","{'Sm': 1.0, 'Fe': 1.0, 'As': 1.0, 'F': 0.6, 'O': 0.6}",Fe-based,5
Lu1Rh2Sn1,2.9,Lu1 Rh2 Sn1,"[Element Lu, Element Rh, Element Sn]","{'Lu': 1.0, 'Rh': 2.0, 'Sn': 1.0}",Other,3
Sc1Rh2Sn1,2.0,Sc1 Rh2 Sn1,"[Element Sc, Element Rh, Element Sn]","{'Sc': 1.0, 'Rh': 2.0, 'Sn': 1.0}",Other,3
Sr1Fe1.84Pt0.16As2,16.0,Sr1 Fe1.84 Pt0.16 As2,"[Element Sr, Element Fe, Element Pt, Element As]","{'Sr': 1.0, 'Fe': 1.84, 'Pt': 0.16, 'As': 2.0}",Fe-based,4
Rb1Fe2As2,2.52,Rb1 Fe2 As2,"[Element Rb, Element Fe, Element As]","{'Rb': 1.0, 'Fe': 2.0, 'As': 2.0}",Fe-based,3
Ba0.7K0.3Fe1.66Co0.34As2,12.0,Ba0.7 K0.3 Fe1.66 Co0.34 As2,"[Element Ba, Element K, Element Fe, Element Co, Element As]","{'Ba': 0.7, 'K': 0.3, 'Fe': 1.66, 'Co': 0.34, 'As': 2.0}",Fe-based,5
Ba0.7K0.3Fe1.72Co0.28As2,12.0,Ba0.7 K0.3 Fe1.72 Co0.28 As2,"[Element Ba, Element K, Element Fe, Element Co, Element As]","{'Ba': 0.7, 'K': 0.3, 'Fe': 1.72, 'Co': 0.28, 'As': 2.0}",Fe-based,5
Ba0.95K0.05Fe1.782Co0.212As2,16.0,Ba0.95 K0.05 Fe1.782 Co0.212 As2,"[Element Ba, Element K, Element Fe, Element Co, Element As]","{'Ba': 0.95, 'K': 0.05, 'Fe': 1.782, 'Co': 0.212, 'As': 2.0}",Fe-based,5
Ba0.86K0.14Fe1.68Co0.32As2,11.0,Ba0.86 K0.14 Fe1.68 Co0.32 As2,"[Element Ba, Element K, Element Fe, Element Co, Element As]","{'Ba': 0.86, 'K': 0.14, 'Fe': 1.68, 'Co': 0.32, 'As': 2.0}",Fe-based,5
Ba0.82K0.18Fe1.654Co0.346As2,11.0,Ba0.82 K0.18 Fe1.654 Co0.346 As2,"[Element Ba, Element K, Element Fe, Element Co, Element As]","{'Ba': 0.82, 'K': 0.18, 'Fe': 1.654, 'Co': 0.346, 'As': 2.0}",Fe-based,5
Ba0.805K0.195Fe1.738Co0.262As2,14.0,Ba0.805 K0.195 Fe1.738 Co0.262 As2,"[Element Ba, Element K, Element Fe, Element Co, Element As]","{'Ba': 0.805, 'K': 0.195, 'Fe': 1.738, 'Co': 0.262, 'As': 2.0}",Fe-based,5
Ba0.694K0.306Fe1.826Co0.174As2,18.0,Ba0.694 K0.306 Fe1.826 Co0.174 As2,"[Element Ba, Element K, Element Fe, Element Co, Element As]","{'Ba': 0.694, 'K': 0.306, 'Fe': 1.826, 'Co': 0.174, 'As': 2.0}",Fe-based,5
Ba0.66K0.34Fe1.8Co0.2As2,19.0,Ba0.66 K0.34 Fe1.8 Co0.2 As2,"[Element Ba, Element K, Element Fe, Element Co, Element As]","{'Ba': 0.66, 'K': 0.34, 'Fe': 1.8, 'Co': 0.2, 'As': 2.0}",Fe-based,5
Ba0.68K0.32Fe1.954Co0.046As2,35.0,Ba0.68 K0.32 Fe1.954 Co0.046 As2,"[Element Ba, Element K, Element Fe, Element Co, Element As]","{'Ba': 0.68, 'K': 0.32, 'Fe': 1.954, 'Co': 0.046, 'As': 2.0}",Fe-based,5
Ba0.511K0.489Fe1.772Co0.228As2,22.0,Ba0.511 K0.489 Fe1.772 Co0.228 As2,"[Element Ba, Element K, Element Fe, Element Co, Element As]","{'Ba': 0.511, 'K': 0.489, 'Fe': 1.772, 'Co': 0.228, 'As': 2.0}",Fe-based,5
Ba0.49K0.51Fe1.79Co0.21As2,15.0,Ba0.49 K0.51 Fe1.79 Co0.21 As2,"[Element Ba, Element K, Element Fe, Element Co, Element As]","{'Ba': 0.49, 'K': 0.51, 'Fe': 1.79, 'Co': 0.21, 'As': 2.0}",Fe-based,5
Ni0.02Ta1Se2,2.5,Ni0.02 Ta1 Se2,"[Element Ni, Element Ta, Element Se]","{'Ni': 0.02, 'Ta': 1.0, 'Se': 2.0}",Other,3
La1.9Sm0.1Cu1O4,25.0,La1.9 Sm0.1 Cu1 O4,"[Element La, Element Sm, Element Cu, Element O]","{'La': 1.9, 'Sm': 0.1, 'Cu': 1.0, 'O': 4.0}",Cuprates,4
La1.7Sm0.3Cu1O4,25.0,La1.7 Sm0.3 Cu1 O4,"[Element La, Element Sm, Element Cu, Element O]","{'La': 1.7, 'Sm': 0.3, 'Cu': 1.0, 'O': 4.0}",Cuprates,4
Ba2Cu1O4,53.5,Ba2 Cu1 O4,"[Element Ba, Element Cu, Element O]","{'Ba': 2.0, 'Cu': 1.0, 'O': 4.0}",Cuprates,3
La1.83Sr0.17Cu0.94Fe0.06O4,26.5,La1.83 Sr0.17 Cu0.94 Fe0.06 O4,"[Element La, Element Sr, Element Cu, Element Fe, Element O]","{'La': 1.83, 'Sr': 0.17, 'Cu': 0.94, 'Fe': 0.06, 'O': 4.0}",Cuprates,5
La1.81Sr0.19Cu0.94Fe0.06O4,28.6,La1.81 Sr0.19 Cu0.94 Fe0.06 O4,"[Element La, Element Sr, Element Cu, Element Fe, Element O]","{'La': 1.81, 'Sr': 0.19, 'Cu': 0.94, 'Fe': 0.06, 'O': 4.0}",Cuprates,5
La1.79Sr0.21Cu0.94Fe0.06O4,2.8,La1.79 Sr0.21 Cu0.94 Fe0.06 O4,"[Element La, Element Sr, Element Cu, Element Fe, Element O]","{'La': 1.79, 'Sr': 0.21, 'Cu': 0.94, 'Fe': 0.06, 'O': 4.0}",Cuprates,5
La1.77Sr0.23Cu0.94Fe0.06O4,30.5,La1.77 Sr0.23 Cu0.94 Fe0.06 O4,"[Element La, Element Sr, Element Cu, Element Fe, Element O]","{'La': 1.77, 'Sr': 0.23, 'Cu': 0.94, 'Fe': 0.06, 'O': 4.0}",Cuprates,5
La1.75Sr0.25Cu0.94Fe0.06O4,30.5,La1.75 Sr0.25 Cu0.94 Fe0.06 O4,"[Element La, Element Sr, Element Cu, Element Fe, Element O]","{'La': 1.75, 'Sr': 0.25, 'Cu': 0.94, 'Fe': 0.06, 'O': 4.0}",Cuprates,5
La1.73Sr0.27Cu0.94Fe0.06O4,32.5,La1.73 Sr0.27 Cu0.94 Fe0.06 O4,"[Element La, Element Sr, Element Cu, Element Fe, Element O]","{'La': 1.73, 'Sr': 0.27, 'Cu': 0.94, 'Fe': 0.06, 'O': 4.0}",Cuprates,5
La1.71Sr0.29Cu0.94Fe0.06O4,32.5,La1.71 Sr0.29 Cu0.94 Fe0.06 O4,"[Element La, Element Sr, Element Cu, Element Fe, Element O]","{'La': 1.71, 'Sr': 0.29, 'Cu': 0.94, 'Fe': 0.06, 'O': 4.0}",Cuprates,5
La1.69Sr0.31Cu0.94Fe0.06O4,28.4,La1.69 Sr0.31 Cu0.94 Fe0.06 O4,"[Element La, Element Sr, Element Cu, Element Fe, Element O]","{'La': 1.69, 'Sr': 0.31, 'Cu': 0.94, 'Fe': 0.06, 'O': 4.0}",Cuprates,5
La1.81Sr0.19Cu0.94Co0.06O4,31.8,La1.81 Sr0.19 Cu0.94 Co0.06 O4,"[Element La, Element Sr, Element Cu, Element Co, Element O]","{'La': 1.81, 'Sr': 0.19, 'Cu': 0.94, 'Co': 0.06, 'O': 4.0}",Cuprates,5
La1.79Sr0.21Cu0.94Co0.06O4,31.8,La1.79 Sr0.21 Cu0.94 Co0.06 O4,"[Element La, Element Sr, Element Cu, Element Co, Element O]","{'La': 1.79, 'Sr': 0.21, 'Cu': 0.94, 'Co': 0.06, 'O': 4.0}",Cuprates,5
La1.77Sr0.23Cu0.94Co0.06O4,32.5,La1.77 Sr0.23 Cu0.94 Co0.06 O4,"[Element La, Element Sr, Element Cu, Element Co, Element O]","{'La': 1.77, 'Sr': 0.23, 'Cu': 0.94, 'Co': 0.06, 'O': 4.0}",Cuprates,5
La1.75Sr0.25Cu0.94Co0.06O4,36.4,La1.75 Sr0.25 Cu0.94 Co0.06 O4,"[Element La, Element Sr, Element Cu, Element Co, Element O]","{'La': 1.75, 'Sr': 0.25, 'Cu': 0.94, 'Co': 0.06, 'O': 4.0}",Cuprates,5
La1.73Sr0.27Cu0.94Co0.06O4,34.0,La1.73 Sr0.27 Cu0.94 Co0.06 O4,"[Element La, Element Sr, Element Cu, Element Co, Element O]","{'La': 1.73, 'Sr': 0.27, 'Cu': 0.94, 'Co': 0.06, 'O': 4.0}",Cuprates,5
La1.71Sr0.29Cu0.94Co0.06O4,33.0,La1.71 Sr0.29 Cu0.94 Co0.06 O4,"[Element La, Element Sr, Element Cu, Element Co, Element O]","{'La': 1.71, 'Sr': 0.29, 'Cu': 0.94, 'Co': 0.06, 'O': 4.0}",Cuprates,5
La1.69Sr0.31Cu0.94Co0.06O4,31.0,La1.69 Sr0.31 Cu0.94 Co0.06 O4,"[Element La, Element Sr, Element Cu, Element Co, Element O]","{'La': 1.69, 'Sr': 0.31, 'Cu': 0.94, 'Co': 0.06, 'O': 4.0}",Cuprates,5
La1.67Sr0.33Cu0.94Co0.06O4,29.0,La1.67 Sr0.33 Cu0.94 Co0.06 O4,"[Element La, Element Sr, Element Cu, Element Co, Element O]","{'La': 1.67, 'Sr': 0.33, 'Cu': 0.94, 'Co': 0.06, 'O': 4.0}",Cuprates,5
La1.81Sr0.19Cu0.94Ni0.06O4,26.4,La1.81 Sr0.19 Cu0.94 Ni0.06 O4,"[Element La, Element Sr, Element Cu, Element Ni, Element O]","{'La': 1.81, 'Sr': 0.19, 'Cu': 0.94, 'Ni': 0.06, 'O': 4.0}",Cuprates,5
La1.79Sr0.21Cu0.94Ni0.06O4,28.3,La1.79 Sr0.21 Cu0.94 Ni0.06 O4,"[Element La, Element Sr, Element Cu, Element Ni, Element O]","{'La': 1.79, 'Sr': 0.21, 'Cu': 0.94, 'Ni': 0.06, 'O': 4.0}",Cuprates,5
La1.77Sr0.23Cu0.94Ni0.06O4,31.5,La1.77 Sr0.23 Cu0.94 Ni0.06 O4,"[Element La, Element Sr, Element Cu, Element Ni, Element O]","{'La': 1.77, 'Sr': 0.23, 'Cu': 0.94, 'Ni': 0.06, 'O': 4.0}",Cuprates,5
La1.75Sr0.25Cu0.94Ni0.06O4,36.5,La1.75 Sr0.25 Cu0.94 Ni0.06 O4,"[Element La, Element Sr, Element Cu, Element Ni, Element O]","{'La': 1.75, 'Sr': 0.25, 'Cu': 0.94, 'Ni': 0.06, 'O': 4.0}",Cuprates,5
La1.73Sr0.27Cu0.94Ni0.06O4,34.4,La1.73 Sr0.27 Cu0.94 Ni0.06 O4,"[Element La, Element Sr, Element Cu, Element Ni, Element O]","{'La': 1.73, 'Sr': 0.27, 'Cu': 0.94, 'Ni': 0.06, 'O': 4.0}",Cuprates,5
La1.71Sr0.29Cu0.94Ni0.06O4,30.4,La1.71 Sr0.29 Cu0.94 Ni0.06 O4,"[Element La, Element Sr, Element Cu, Element Ni, Element O]","{'La': 1.71, 'Sr': 0.29, 'Cu': 0.94, 'Ni': 0.06, 'O': 4.0}",Cuprates,5
Ce1Fe0.95Co0.05As1F0.1O0.9,23.5,Ce1 Fe0.95 Co0.05 As1 F0.1 O0.9,"[Element Ce, Element Fe, Element Co, Element As, Element F, Element O]","{'Ce': 1.0, 'Fe': 0.95, 'Co': 0.05, 'As': 1.0, 'F': 0.1, 'O': 0.9}",Fe-based,6
Ce1Fe0.9Co0.1As1F0.1O0.9,9.8,Ce1 Fe0.9 Co0.1 As1 F0.1 O0.9,"[Element Ce, Element Fe, Element Co, Element As, Element F, Element O]","{'Ce': 1.0, 'Fe': 0.9, 'Co': 0.1, 'As': 1.0, 'F': 0.1, 'O': 0.9}",Fe-based,6
Ce1Fe0.85Co0.15As1F0.1O0.9,4.0,Ce1 Fe0.85 Co0.15 As1 F0.1 O0.9,"[Element Ce, Element Fe, Element Co, Element As, Element F, Element O]","{'Ce': 1.0, 'Fe': 0.85, 'Co': 0.15, 'As': 1.0, 'F': 0.1, 'O': 0.9}",Fe-based,6