chemical_formula,Tc,composition,elements,stoichiometry,Category,num_elements
Ga0.15Nb3Sb0.15Sn0.7,16.89,Ga0.15 Nb3 Sb0.15 Sn0.7,"[Element Ga, Element Nb, Element Sb, Element Sn]","{'Ga': 0.15, 'Nb': 3.0, 'Sb': 0.15, 'Sn': 0.7}",Other,4
Ga0.15Nb3Pb0.15Sn0.7,18.11,Ga0.15 Nb3 Pb0.15 Sn0.7,"[Element Ga, Element Nb, Element Pb, Element Sn]","{'Ga': 0.15, 'Nb': 3.0, 'Pb': 0.15, 'Sn': 0.7}",Other,4
Ga0.71V0.29,4.2,Ga0.71 V0.29,"[Element Ga, Element V]","{'Ga': 0.71, 'V': 0.29}",Other,2
Ga5V2,3.55,Ga5 V2,"[Element Ga, Element V]","{'Ga': 5.0, 'V': 2.0}",Other,2
Ga1V3,14.19,Ga1 V3,"[Element Ga, Element V]","{'Ga': 1.0, 'V': 3.0}",Other,2
Ga1Si1V3,18.6,Ga1 Si1 V3,"[Element Ga, Element Si, Element V]","{'Ga': 1.0, 'Si': 1.0, 'V': 3.0}",Other,3
Ga1V1,16.45,Ga1 V1,"[Element Ga, Element V]","{'Ga': 1.0, 'V': 1.0}",Other,2
Ge1Ir1,4.7,Ge1 Ir1,"[Element Ge, Element Ir]","{'Ge': 1.0, 'Ir': 1.0}",Other,2
Ge7Ir3,0.87,Ge7 Ir3,"[Element Ge, Element Ir]","{'Ge': 7.0, 'Ir': 3.0}",Other,2
Ge0.1In0.9,6.2,Ge0.1 In0.9,"[Element Ge, Element In]","{'Ge': 0.1, 'In': 0.9}",Other,2
Ge1Nb2,1.9,Ge1 Nb2,"[Element Ge, Element Nb]","{'Ge': 1.0, 'Nb': 2.0}",Other,2
Ge0.23Mo0.77,2.16,Ge0.23 Mo0.77,"[Element Ge, Element Mo]","{'Ge': 0.23, 'Mo': 0.77}",Other,2
Ge1Mo3,1.6,Ge1 Mo3,"[Element Ge, Element Mo]","{'Ge': 1.0, 'Mo': 3.0}",Other,2
Ge0.15Nb3Sn0.85,17.8,Ge0.15 Nb3 Sn0.85,"[Element Ge, Element Nb, Element Sn]","{'Ge': 0.15, 'Nb': 3.0, 'Sn': 0.85}",Other,3
Ge0.15Nb3Pb0.15Sn0.7,17.82,Ge0.15 Nb3 Pb0.15 Sn0.7,"[Element Ge, Element Nb, Element Pb, Element Sn]","{'Ge': 0.15, 'Nb': 3.0, 'Pb': 0.15, 'Sn': 0.7}",Other,4
Ge0.72Nb3.28,5.5,Ge0.72 Nb3.28,"[Element Ge, Element Nb]","{'Ge': 0.72, 'Nb': 3.28}",Other,2
Ge0.55Nb3.45,4.9,Ge0.55 Nb3.45,"[Element Ge, Element Nb]","{'Ge': 0.55, 'Nb': 3.45}",Other,2
Ge0.22Nb1,5.3,Ge0.22 Nb1,"[Element Ge, Element Nb]","{'Ge': 0.22, 'Nb': 1.0}",Other,2
Ge0.1Si0.9V3,14.4,Ge0.1 Si0.9 V3,"[Element Ge, Element Si, Element V]","{'Ge': 0.1, 'Si': 0.9, 'V': 3.0}",Other,3
Ge2Sc1,1.3,Ge2 Sc1,"[Element Ge, Element Sc]","{'Ge': 2.0, 'Sc': 1.0}",Other,2
Ge0.3Sb0.7,3.3,Ge0.3 Sb0.7,"[Element Ge, Element Sb]","{'Ge': 0.3, 'Sb': 0.7}",Other,2
Ge3Rh5,2.12,Ge3 Rh5,"[Element Ge, Element Rh]","{'Ge': 3.0, 'Rh': 5.0}",Other,2
Ge1Rh1,0.96,Ge1 Rh1,"[Element Ge, Element Rh]","{'Ge': 1.0, 'Rh': 1.0}",Other,2
Ge0.5Pt0.5,1.4,Ge0.5 Pt0.5,"[Element Ge, Element Pt]","{'Ge': 0.5, 'Pt': 0.5}",Other,2
Ge1Pt1,0.4,Ge1 Pt1,"[Element Ge, Element Pt]","{'Ge': 1.0, 'Pt': 1.0}",Other,2
Ge1V3,6.7,Ge1 V3,"[Element Ge, Element V]","{'Ge': 1.0, 'V': 3.0}",Other,2
Ge1Ta3,8.0,Ge1 Ta3,"[Element Ge, Element Ta]","{'Ge': 1.0, 'Ta': 3.0}",Other,2
H0.33Nb0.67,7.28,H0.33 Nb0.67,"[Element H, Element Nb]","{'H': 0.33, 'Nb': 0.67}",Hydrides,2
H1.33N0.33O3W1,3.2,H1.33 N0.33 O3 W1,"[Element H, Element N, Element O, Element W]","{'H': 1.33, 'N': 0.33, 'O': 3.0, 'W': 1.0}",Hydrides,4
H0.11S2Ta1,4.2,H0.11 S2 Ta1,"[Element H, Element S, Element Ta]","{'H': 0.11, 'S': 2.0, 'Ta': 1.0}",Hydrides,3
Hf0.5Nb0.5,9.5,Hf0.5 Nb0.5,"[Element Hf, Element Nb]","{'Hf': 0.5, 'Nb': 0.5}",Other,2
Hf0.33Nb0.67,17.0,Hf0.33 Nb0.67,"[Element Hf, Element Nb]","{'Hf': 0.33, 'Nb': 0.67}",Other,2
Hf0.15Nb0.85,9.85,Hf0.15 Nb0.85,"[Element Hf, Element Nb]","{'Hf': 0.15, 'Nb': 0.85}",Other,2
Hf1N1,8.83,Hf1 N1,"[Element Hf, Element N]","{'Hf': 1.0, 'N': 1.0}",Other,2
Hf1Mo2,1.0,Hf1 Mo2,"[Element Hf, Element Mo]","{'Hf': 1.0, 'Mo': 2.0}",Other,2
Hf0.9Mo0.1,2.5,Hf0.9 Mo0.1,"[Element Hf, Element Mo]","{'Hf': 0.9, 'Mo': 0.1}",Other,2
H15Th4,8.45,H15 Th4,"[Element H, Element Th]","{'H': 15.0, 'Th': 4.0}",Hydrides,2
Hf0.875Re0.125,1.7,Hf0.875 Re0.125,"[Element Hf, Element Re]","{'Hf': 0.875, 'Re': 0.125}",Other,2
Hf1Os2,2.69,Hf1 Os2,"[Element Hf, Element Os]","{'Hf': 1.0, 'Os': 2.0}",Other,2
Hf2Ni1,0.87,Hf2 Ni1,"[Element Hf, Element Ni]","{'Hf': 2.0, 'Ni': 1.0}",Other,2
Hf0.33Nb0.33V0.33,6.6,Hf0.33 Nb0.33 V0.33,"[Element Hf, Element Nb, Element V]","{'Hf': 0.33, 'Nb': 0.33, 'V': 0.33}",Other,3
Hf0.05Rh0.04Ti0.91,1.7,Hf0.05 Rh0.04 Ti0.91,"[Element Hf, Element Rh, Element Ti]","{'Hf': 0.05, 'Rh': 0.04, 'Ti': 0.91}",Other,3
Hf2Rh1,2.02,Hf2 Rh1,"[Element Hf, Element Rh]","{'Hf': 2.0, 'Rh': 1.0}",Other,2
Hf1Rh1,1.73,Hf1 Rh1,"[Element Hf, Element Rh]","{'Hf': 1.0, 'Rh': 1.0}",Other,2
Hf0.025Re0.975,7.3,Hf0.025 Re0.975,"[Element Hf, Element Re]","{'Hf': 0.025, 'Re': 0.975}",Other,2
Hf0.14Re0.86,5.86,Hf0.14 Re0.86,"[Element Hf, Element Re]","{'Hf': 0.14, 'Re': 0.86}",Other,2
Hf1Re2,5.61,Hf1 Re2,"[Element Hf, Element Re]","{'Hf': 1.0, 'Re': 2.0}",Other,2
Hg8K1,3.42,Hg8 K1,"[Element Hg, Element K]","{'Hg': 8.0, 'K': 1.0}",Other,2
Hg1In1,3.81,Hg1 In1,"[Element Hg, Element In]","{'Hg': 1.0, 'In': 1.0}",Other,2
Hf1V2.3,9.2,Hf1 V2.3,"[Element Hf, Element V]","{'Hf': 1.0, 'V': 2.3}",Other,2
Hf1Tc2,5.6,Hf1 Tc2,"[Element Hf, Element Tc]","{'Hf': 1.0, 'Tc': 2.0}",Other,2
Hf0.2Ta0.8,6.9,Hf0.2 Ta0.8,"[Element Hf, Element Ta]","{'Hf': 0.2, 'Ta': 0.8}",Other,2
Hg3Mg1,0.48,Hg3 Mg1,"[Element Hg, Element Mg]","{'Hg': 3.0, 'Mg': 1.0}",Other,2
Hg1Mg1,0.48,Hg1 Mg1,"[Element Hg, Element Mg]","{'Hg': 1.0, 'Mg': 1.0}",Other,2
Hg2Mg1,4.0,Hg2 Mg1,"[Element Hg, Element Mg]","{'Hg': 2.0, 'Mg': 1.0}",Other,2
Hg3Li1,1.7,Hg3 Li1,"[Element Hg, Element Li]","{'Hg': 3.0, 'Li': 1.0}",Other,2
Hg2K1,1.2,Hg2 K1,"[Element Hg, Element K]","{'Hg': 2.0, 'K': 1.0}",Other,2
Hg3K1,3.18,Hg3 K1,"[Element Hg, Element K]","{'Hg': 3.0, 'K': 1.0}",Other,2
Hf4K1,3.27,Hf4 K1,"[Element Hf, Element K]","{'Hf': 4.0, 'K': 1.0}",Other,2
Hg1Sn1,4.2,Hg1 Sn1,"[Element Hg, Element Sn]","{'Hg': 1.0, 'Sn': 1.0}",Other,2
Hg2Na1,1.62,Hg2 Na1,"[Element Hg, Element Na]","{'Hg': 2.0, 'Na': 1.0}",Other,2
Hg4Na1,3.05,Hg4 Na1,"[Element Hg, Element Na]","{'Hg': 4.0, 'Na': 1.0}",Other,2
Hg1Mg3,0.16,Hg1 Mg3,"[Element Hg, Element Mg]","{'Hg': 1.0, 'Mg': 3.0}",Other,2
In0.5La3Tl0.5,8.9,In0.5 La3 Tl0.5,"[Element In, Element La, Element Tl]","{'In': 0.5, 'La': 3.0, 'Tl': 0.5}",Other,3
In0.8La3Sn0.2,7.8,In0.8 La3 Sn0.2,"[Element In, Element La, Element Sn]","{'In': 0.8, 'La': 3.0, 'Sn': 0.2}",Other,3
In3La1,0.7,In3 La1,"[Element In, Element La]","{'In': 3.0, 'La': 1.0}",Other,2
Hg0.698Tl0.302,3.888,Hg0.698 Tl0.302,"[Element Hg, Element Tl]","{'Hg': 0.698, 'Tl': 0.302}",Other,2
Hg0.714Tl0.286,3.875,Hg0.714 Tl0.286,"[Element Hg, Element Tl]","{'Hg': 0.714, 'Tl': 0.286}",Other,2
Hg0.97Tl0.03,4.109,Hg0.97 Tl0.03,"[Element Hg, Element Tl]","{'Hg': 0.97, 'Tl': 0.03}",Other,2
In0.11O3W1,2.8,In0.11 O3 W1,"[Element In, Element O, Element W]","{'In': 0.11, 'O': 3.0, 'W': 1.0}",Other,3
In0.15Nb3Sb0.15Sn0.7,16.09,In0.15 Nb3 Sb0.15 Sn0.7,"[Element In, Element Nb, Element Sb, Element Sn]","{'In': 0.15, 'Nb': 3.0, 'Sb': 0.15, 'Sn': 0.7}",Other,4
In0.15Nb3Sn0.85,18.26,In0.15 Nb3 Sn0.85,"[Element In, Element Nb, Element Sn]","{'In': 0.15, 'Nb': 3.0, 'Sn': 0.85}",Other,3
In1Nb3,8.0,In1 Nb3,"[Element In, Element Nb]","{'In': 1.0, 'Nb': 3.0}",Other,2
In0.488Na0.025Pb0.488,6.0,In0.488 Na0.025 Pb0.488,"[Element In, Element Na, Element Pb]","{'In': 0.488, 'Na': 0.025, 'Pb': 0.488}",Other,3
In1N1,3.38,In1 N1,"[Element In, Element N]","{'In': 1.0, 'N': 1.0}",Other,2
In3Lu1,0.24,In3 Lu1,"[Element In, Element Lu]","{'In': 3.0, 'Lu': 1.0}",Other,2
In0.1Pb0.9,6.8,In0.1 Pb0.9,"[Element In, Element Pb]","{'In': 0.1, 'Pb': 0.9}",Other,2
In0.087Pb0.913,7.035,In0.087 Pb0.913,"[Element In, Element Pb]","{'In': 0.087, 'Pb': 0.913}",Other,2
In0.6Pb0.4,6.36,In0.6 Pb0.4,"[Element In, Element Pb]","{'In': 0.6, 'Pb': 0.4}",Other,2
In0.913Pb0.087,4.2,In0.913 Pb0.087,"[Element In, Element Pb]","{'In': 0.913, 'Pb': 0.087}",Other,2
In0.961Pb0.039,3.64,In0.961 Pb0.039,"[Element In, Element Pb]","{'In': 0.961, 'Pb': 0.039}",Other,2
In0.955Pb0.045,3.69,In0.955 Pb0.045,"[Element In, Element Pb]","{'In': 0.955, 'Pb': 0.045}",Other,2
In0.88Sn0.12,5.03,In0.88 Sn0.12,"[Element In, Element Sn]","{'In': 0.88, 'Sn': 0.12}",Other,2
In0.7Sn0.3,7.3,In0.7 Sn0.3,"[Element In, Element Sn]","{'In': 0.7, 'Sn': 0.3}",Other,2
In0.5Sn0.5,6.9,In0.5 Sn0.5,"[Element In, Element Sn]","{'In': 0.5, 'Sn': 0.5}",Other,2
In0.75Sn0.25,5.95,In0.75 Sn0.25,"[Element In, Element Sn]","{'In': 0.75, 'Sn': 0.25}",Other,2
In0.2Si0.8V3,16.2,In0.2 Si0.8 V3,"[Element In, Element Si, Element V]","{'In': 0.2, 'Si': 0.8, 'V': 3.0}",Other,3
In2Sb1Te2,1.06,In2 Sb1 Te2,"[Element In, Element Sb, Element Te]","{'In': 2.0, 'Sb': 1.0, 'Te': 2.0}",Other,3
In1Sb1Sn1,2.5,In1 Sb1 Sn1,"[Element In, Element Sb, Element Sn]","{'In': 1.0, 'Sb': 1.0, 'Sn': 1.0}",Other,3
In0.25Sb0.75,4.1,In0.25 Sb0.75,"[Element In, Element Sb]","{'In': 0.25, 'Sb': 0.75}",Other,2
In3Ru1,2.68,In3 Ru1,"[Element In, Element Ru]","{'In': 3.0, 'Ru': 1.0}",Other,2
In0.005Tl0.995,2.418,In0.005 Tl0.995,"[Element In, Element Tl]","{'In': 0.005, 'Tl': 0.995}",Other,2
In0.012Sn0.988,3.69,In0.012 Sn0.988,"[Element In, Element Sn]","{'In': 0.012, 'Sn': 0.988}",Other,2
In0.05Sn0.95,3.625,In0.05 Sn0.95,"[Element In, Element Sn]","{'In': 0.05, 'Sn': 0.95}",Other,2
Ir2Lu1,2.47,Ir2 Lu1,"[Element Ir, Element Lu]","{'Ir': 2.0, 'Lu': 1.0}",Other,2
Ir3Lu1,2.89,Ir3 Lu1,"[Element Ir, Element Lu]","{'Ir': 3.0, 'Lu': 1.0}",Other,2
Ir3La7,2.24,Ir3 La7,"[Element Ir, Element La]","{'Ir': 3.0, 'La': 7.0}",Other,2
Ir2La1,0.48,Ir2 La1,"[Element Ir, Element La]","{'Ir': 2.0, 'La': 1.0}",Other,2
Ir5La1,2.13,Ir5 La1,"[Element Ir, Element La]","{'Ir': 5.0, 'La': 1.0}",Other,2
In1V3,13.9,In1 V3,"[Element In, Element V]","{'In': 1.0, 'V': 3.0}",Other,2
In0.1Tl0.9,3.27,In0.1 Tl0.9,"[Element In, Element Tl]","{'In': 0.1, 'Tl': 0.9}",Other,2
Ir0.25Mo0.75Nb2.25Pt0.75,6.5,Ir0.25 Mo0.75 Nb2.25 Pt0.75,"[Element Ir, Element Mo, Element Nb, Element Pt]","{'Ir': 0.25, 'Mo': 0.75, 'Nb': 2.25, 'Pt': 0.75}",Other,4
Ir1Mo3Nb1Pt1,5.82,Ir1 Mo3 Nb1 Pt1,"[Element Ir, Element Mo, Element Nb, Element Pt]","{'Ir': 1.0, 'Mo': 3.0, 'Nb': 1.0, 'Pt': 1.0}",Other,4
Ir1Mo3Nb3Pt1,6.13,Ir1 Mo3 Nb3 Pt1,"[Element Ir, Element Mo, Element Nb, Element Pt]","{'Ir': 1.0, 'Mo': 3.0, 'Nb': 3.0, 'Pt': 1.0}",Other,4
Ir0.29Mo0.41Nb0.3,8.7,Ir0.29 Mo0.41 Nb0.3,"[Element Ir, Element Mo, Element Nb]","{'Ir': 0.29, 'Mo': 0.41, 'Nb': 0.3}",Other,3
Ir1Mo1,1.85,Ir1 Mo1,"[Element Ir, Element Mo]","{'Ir': 1.0, 'Mo': 1.0}",Other,2
Ir0.26Mo0.74,6.7,Ir0.26 Mo0.74,"[Element Ir, Element Mo]","{'Ir': 0.26, 'Mo': 0.74}",Other,2
Ir3Lu7,0.78,Ir3 Lu7,"[Element Ir, Element Lu]","{'Ir': 3.0, 'Lu': 7.0}",Other,2
Ir1Lu2,0.84,Ir1 Lu2,"[Element Ir, Element Lu]","{'Ir': 1.0, 'Lu': 2.0}",Other,2
Ir0.05Nb3Rh0.95,2.38,Ir0.05 Nb3 Rh0.95,"[Element Ir, Element Nb, Element Rh]","{'Ir': 0.05, 'Nb': 3.0, 'Rh': 0.95}",Other,3
Ir0.02Nb3Rh0.98,2.43,Ir0.02 Nb3 Rh0.98,"[Element Ir, Element Nb, Element Rh]","{'Ir': 0.02, 'Nb': 3.0, 'Rh': 0.98}",Other,3
Ir0.1Nb0.9,2.3,Ir0.1 Nb0.9,"[Element Ir, Element Nb]","{'Ir': 0.1, 'Nb': 0.9}",Other,2
Ir0.34Nb0.66,2.25,Ir0.34 Nb0.66,"[Element Ir, Element Nb]","{'Ir': 0.34, 'Nb': 0.66}",Other,2
Ir1Nb3,2.07,Ir1 Nb3,"[Element Ir, Element Nb]","{'Ir': 1.0, 'Nb': 3.0}",Other,2
Ir1.05Nb0.95,4.75,Ir1.05 Nb0.95,"[Element Ir, Element Nb]","{'Ir': 1.05, 'Nb': 0.95}",Other,2
Ir1.15Nb0.85,4.6,Ir1.15 Nb0.85,"[Element Ir, Element Nb]","{'Ir': 1.15, 'Nb': 0.85}",Other,2
Ir0.3Mo0.4Re0.3,9.5,Ir0.3 Mo0.4 Re0.3,"[Element Ir, Element Mo, Element Re]","{'Ir': 0.3, 'Mo': 0.4, 'Re': 0.3}",Other,3
Ir0.825Ru0.1Os0.075,0.16,Ir0.825 Ru0.1 Os0.075,"[Element Ir, Element Ru, Element Os]","{'Ir': 0.825, 'Ru': 0.1, 'Os': 0.075}",Other,3
Ir0.73Os0.17Ru0.1,0.34,Ir0.73 Os0.17 Ru0.1,"[Element Ir, Element Os, Element Ru]","{'Ir': 0.73, 'Os': 0.17, 'Ru': 0.1}",Other,3
Ir0.75Os0.05Rh0.2,0.055,Ir0.75 Os0.05 Rh0.2,"[Element Ir, Element Os, Element Rh]","{'Ir': 0.75, 'Os': 0.05, 'Rh': 0.2}",Other,3
Ir0.18Os0.47Rh0.35,0.55,Ir0.18 Os0.47 Rh0.35,"[Element Ir, Element Os, Element Rh]","{'Ir': 0.18, 'Os': 0.47, 'Rh': 0.35}",Other,3
Ir0.75Os0.25,0.4,Ir0.75 Os0.25,"[Element Ir, Element Os]","{'Ir': 0.75, 'Os': 0.25}",Other,2
Ir0.5Os0.5,0.98,Ir0.5 Os0.5,"[Element Ir, Element Os]","{'Ir': 0.5, 'Os': 0.5}",Other,2
Ir0.287O0.14Ti0.573,5.5,Ir0.287 O0.14 Ti0.573,"[Element Ir, Element O, Element Ti]","{'Ir': 0.287, 'O': 0.14, 'Ti': 0.573}",Other,3
Ir0.984Ni0.016,0.052,Ir0.984 Ni0.016,"[Element Ir, Element Ni]","{'Ir': 0.984, 'Ni': 0.016}",Other,2
Ir0.05Rh0.04Ti0.91,4.0,Ir0.05 Rh0.04 Ti0.91,"[Element Ir, Element Rh, Element Ti]","{'Ir': 0.05, 'Rh': 0.04, 'Ti': 0.91}",Other,3
Ir0.98Re0.02,1.7,Ir0.98 Re0.02,"[Element Ir, Element Re]","{'Ir': 0.98, 'Re': 0.02}",Other,2
Ir0.775Pt0.175Rh0.05,0.032,Ir0.775 Pt0.175 Rh0.05,"[Element Ir, Element Pt, Element Rh]","{'Ir': 0.775, 'Pt': 0.175, 'Rh': 0.05}",Other,3
Ir0.72Pt0.08Rh0.2,0.03,Ir0.72 Pt0.08 Rh0.2,"[Element Ir, Element Pt, Element Rh]","{'Ir': 0.72, 'Pt': 0.08, 'Rh': 0.2}",Other,3
Ir0.8Pt0.2,0.046,Ir0.8 Pt0.2,"[Element Ir, Element Pt]","{'Ir': 0.8, 'Pt': 0.2}",Other,2
Ir0.9Pt0.1,0.066,Ir0.9 Pt0.1,"[Element Ir, Element Pt]","{'Ir': 0.9, 'Pt': 0.1}",Other,2
Ir2.5Sc1,2.46,Ir2.5 Sc1,"[Element Ir, Element Sc]","{'Ir': 2.5, 'Sc': 1.0}",Other,2
Ir2Th1,6.5,Ir2 Th1,"[Element Ir, Element Th]","{'Ir': 2.0, 'Th': 1.0}",Other,2
Ir3Th1,4.71,Ir3 Th1,"[Element Ir, Element Th]","{'Ir': 3.0, 'Th': 1.0}",Other,2
Ir5Th1,3.93,Ir5 Th1,"[Element Ir, Element Th]","{'Ir': 5.0, 'Th': 1.0}",Other,2
Ir0.5Te0.5,3.0,Ir0.5 Te0.5,"[Element Ir, Element Te]","{'Ir': 0.5, 'Te': 0.5}",Other,2
Ir1Te3,1.18,Ir1 Te3,"[Element Ir, Element Te]","{'Ir': 1.0, 'Te': 3.0}",Other,2
Ir2Sr1,5.7,Ir2 Sr1,"[Element Ir, Element Sr]","{'Ir': 2.0, 'Sr': 1.0}",Other,2
Ir1Sn2,0.78,Ir1 Sn2,"[Element Ir, Element Sn]","{'Ir': 1.0, 'Sn': 2.0}",Other,2
Ir0.33V2.67,1.39,Ir0.33 V2.67,"[Element Ir, Element V]","{'Ir': 0.33, 'V': 2.67}",Other,2
Ir0.04Ti0.96,1.6,Ir0.04 Ti0.96,"[Element Ir, Element Ti]","{'Ir': 0.04, 'Ti': 0.96}",Other,2
Ir0.1Ti0.9,4.3,Ir0.1 Ti0.9,"[Element Ir, Element Ti]","{'Ir': 0.1, 'Ti': 0.9}",Other,2
Ir1Ti3,4.97,Ir1 Ti3,"[Element Ir, Element Ti]","{'Ir': 1.0, 'Ti': 3.0}",Other,2
Ir3Th7,1.52,Ir3 Th7,"[Element Ir, Element Th]","{'Ir': 3.0, 'Th': 7.0}",Other,2
Ir1Th1,0.37,Ir1 Th1,"[Element Ir, Element Th]","{'Ir': 1.0, 'Th': 1.0}",Other,2
Ir0.25W0.75,3.82,Ir0.25 W0.75,"[Element Ir, Element W]","{'Ir': 0.25, 'W': 0.75}",Other,2
Ir0.28W0.72,4.46,Ir0.28 W0.72,"[Element Ir, Element W]","{'Ir': 0.28, 'W': 0.72}",Other,2
La0.98Lu0.02,4.643,La0.98 Lu0.02,"[Element La, Element Lu]","{'La': 0.98, 'Lu': 0.02}",Other,2
La0.99Lu0.01,5.6,La0.99 Lu0.01,"[Element La, Element Lu]","{'La': 0.99, 'Lu': 0.01}",Other,2
K0.3O3Re1,3.6,K0.3 O3 Re1,"[Element K, Element O, Element Re]","{'K': 0.3, 'O': 3.0, 'Re': 1.0}",Other,3
K0.28Mo1S2,6.2,K0.28 Mo1 S2,"[Element K, Element Mo, Element S]","{'K': 0.28, 'Mo': 1.0, 'S': 2.0}",Other,3
K0.4Mo1S2,5.5,K0.4 Mo1 S2,"[Element K, Element Mo, Element S]","{'K': 0.4, 'Mo': 1.0, 'S': 2.0}",Other,3
K0.5Mo1O3,4.2,K0.5 Mo1 O3,"[Element K, Element Mo, Element O]","{'K': 0.5, 'Mo': 1.0, 'O': 3.0}",Other,3
La1Pt2,0.46,La1 Pt2,"[Element La, Element Pt]","{'La': 1.0, 'Pt': 2.0}",Other,2
La0.98Pr0.02Ru2,1.92,La0.98 Pr0.02 Ru2,"[Element La, Element Pr, Element Ru]","{'La': 0.98, 'Pr': 0.02, 'Ru': 2.0}",Other,3
La0.99Pr0.01,5.3,La0.99 Pr0.01,"[Element La, Element Pr]","{'La': 0.99, 'Pr': 0.01}",Other,2
La1Pb3,4.07,La1 Pb3,"[Element La, Element Pb]","{'La': 1.0, 'Pb': 3.0}",Other,2
La1N1,1.35,La1 N1,"[Element La, Element N]","{'La': 1.0, 'N': 1.0}",Other,2
La0.2Mo6.35Pb0.8S8,13.2,La0.2 Mo6.35 Pb0.8 S8,"[Element La, Element Mo, Element Pb, Element S]","{'La': 0.2, 'Mo': 6.35, 'Pb': 0.8, 'S': 8.0}",Other,4
La1Mg2,1.05,La1 Mg2,"[Element La, Element Mg]","{'La': 1.0, 'Mg': 2.0}",Other,2
La0.55Lu0.45,2.2,La0.55 Lu0.45,"[Element La, Element Lu]","{'La': 0.55, 'Lu': 0.45}",Other,2
La0.8Lu0.2,3.4,La0.8 Lu0.2,"[Element La, Element Lu]","{'La': 0.8, 'Lu': 0.2}",Other,2
La1Si2,2.3,La1 Si2,"[Element La, Element Si]","{'La': 1.0, 'Si': 2.0}",Other,2
La5Si3,1.6,La5 Si3,"[Element La, Element Si]","{'La': 5.0, 'Si': 3.0}",Other,2
La1Se1,1.02,La1 Se1,"[Element La, Element Se]","{'La': 1.0, 'Se': 1.0}",Other,2
La3S4,8.06,La3 S4,"[Element La, Element S]","{'La': 3.0, 'S': 4.0}",Other,2
La1S1,0.84,La1 S1,"[Element La, Element S]","{'La': 1.0, 'S': 1.0}",Other,2
La1Ru2,4.1,La1 Ru2,"[Element La, Element Ru]","{'La': 1.0, 'Ru': 2.0}",Other,2
La7Rh3,2.58,La7 Rh3,"[Element La, Element Rh]","{'La': 7.0, 'Rh': 3.0}",Other,2
La1Rh5,1.62,La1 Rh5,"[Element La, Element Rh]","{'La': 1.0, 'Rh': 5.0}",Other,2
La1Rh3,2.6,La1 Rh3,"[Element La, Element Rh]","{'La': 1.0, 'Rh': 3.0}",Other,2
La1Tl3,1.57,La1 Tl3,"[Element La, Element Tl]","{'La': 1.0, 'Tl': 3.0}",Other,2
La3Tl1,8.86,La3 Tl1,"[Element La, Element Tl]","{'La': 3.0, 'Tl': 1.0}",Other,2
La3Te4,5.3,La3 Te4,"[Element La, Element Te]","{'La': 3.0, 'Te': 4.0}",Other,2
La1Te1,1.48,La1 Te1,"[Element La, Element Te]","{'La': 1.0, 'Te': 1.0}",Other,2
La0.84Sn3Tm0.16,3.3,La0.84 Sn3 Tm0.16,"[Element La, Element Sn, Element Tm]","{'La': 0.84, 'Sn': 3.0, 'Tm': 0.16}",Other,3
La1Sn3,6.5,La1 Sn3,"[Element La, Element Sn]","{'La': 1.0, 'Sn': 3.0}",Other,2
La0.06Si1V2.94,15.92,La0.06 Si1 V2.94,"[Element La, Element Si, Element V]","{'La': 0.06, 'Si': 1.0, 'V': 2.94}",Other,3
La0.006Si1V2.994,16.48,La0.006 Si1 V2.994,"[Element La, Element Si, Element V]","{'La': 0.006, 'Si': 1.0, 'V': 2.994}",Other,3
Lu0.275Rh0.725,1.27,Lu0.275 Rh0.725,"[Element Lu, Element Rh]","{'Lu': 0.275, 'Rh': 0.725}",Other,2
Lu1Rh5,0.49,Lu1 Rh5,"[Element Lu, Element Rh]","{'Lu': 1.0, 'Rh': 5.0}",Other,2
Lu1Os2,3.49,Lu1 Os2,"[Element Lu, Element Os]","{'Lu': 1.0, 'Os': 2.0}",Other,2
Li1Pb1,7.2,Li1 Pb1,"[Element Li, Element Pb]","{'Li': 1.0, 'Pb': 1.0}",Other,2
Li0.3O3W1,2.2,Li0.3 O3 W1,"[Element Li, Element O, Element W]","{'Li': 0.3, 'O': 3.0, 'W': 1.0}",Other,3
Li0.4Mo1S2,3.7,Li0.4 Mo1 S2,"[Element Li, Element Mo, Element S]","{'Li': 0.4, 'Mo': 1.0, 'S': 2.0}",Other,3
Mg0.47Tl0.53,2.75,Mg0.47 Tl0.53,"[Element Mg, Element Tl]","{'Mg': 0.47, 'Tl': 0.53}",Other,2
Mg0.1Pb0.9,6.61,Mg0.1 Pb0.9,"[Element Mg, Element Pb]","{'Mg': 0.1, 'Pb': 0.9}",Other,2
Mg2Pb1,5.6,Mg2 Pb1,"[Element Mg, Element Pb]","{'Mg': 2.0, 'Pb': 1.0}",Other,2
Mg0.9Mo5.1S6,2.5,Mg0.9 Mo5.1 S6,"[Element Mg, Element Mo, Element S]","{'Mg': 0.9, 'Mo': 5.1, 'S': 6.0}",Other,3
Lu1Se1,0.56,Lu1 Se1,"[Element Lu, Element Se]","{'Lu': 1.0, 'Se': 1.0}",Other,2
Lu1S1,1.1,Lu1 S1,"[Element Lu, Element S]","{'Lu': 1.0, 'S': 1.0}",Other,2
Lu1Ru2,0.86,Lu1 Ru2,"[Element Lu, Element Ru]","{'Lu': 1.0, 'Ru': 2.0}",Other,2
Mn0.01Ti0.99,1.2,Mn0.01 Ti0.99,"[Element Mn, Element Ti]","{'Mn': 0.01, 'Ti': 0.99}",Other,2
Mn0.02Ti0.98,1.9,Mn0.02 Ti0.98,"[Element Mn, Element Ti]","{'Mn': 0.02, 'Ti': 0.98}",Other,2
Mn0.14Ti0.86,2.55,Mn0.14 Ti0.86,"[Element Mn, Element Ti]","{'Mn': 0.14, 'Ti': 0.86}",Other,2
Mn0.21Si1V2.79,15.5,Mn0.21 Si1 V2.79,"[Element Mn, Element Si, Element V]","{'Mn': 0.21, 'Si': 1.0, 'V': 2.79}",Other,3
Mn0.03Si1V2.97,16.25,Mn0.03 Si1 V2.97,"[Element Mn, Element Si, Element V]","{'Mn': 0.03, 'Si': 1.0, 'V': 2.97}",Other,3
Mn0.05Rh0.04Ti0.91,2.4,Mn0.05 Rh0.04 Ti0.91,"[Element Mn, Element Rh, Element Ti]","{'Mn': 0.05, 'Rh': 0.04, 'Ti': 0.91}",Other,3
Mn0.33Ni0.67U6,1.6,Mn0.33 Ni0.67 U6,"[Element Mn, Element Ni, Element U]","{'Mn': 0.33, 'Ni': 0.67, 'U': 6.0}",Other,3
Mn0.67Ni0.33U6,2.7,Mn0.67 Ni0.33 U6,"[Element Mn, Element Ni, Element U]","{'Mn': 0.67, 'Ni': 0.33, 'U': 6.0}",Other,3
Mo0.3Nb0.1Re0.6,10.1,Mo0.3 Nb0.1 Re0.6,"[Element Mo, Element Nb, Element Re]","{'Mo': 0.3, 'Nb': 0.1, 'Re': 0.6}",Other,3
Mo0.725Nb0.061Re0.187,5.0,Mo0.725 Nb0.061 Re0.187,"[Element Mo, Element Nb, Element Re]","{'Mo': 0.725, 'Nb': 0.061, 'Re': 0.187}",Other,3
Mo0.02Nb0.98,8.58,Mo0.02 Nb0.98,"[Element Mo, Element Nb]","{'Mo': 0.02, 'Nb': 0.98}",Other,2
Mo0.05Nb0.95,8.0,Mo0.05 Nb0.95,"[Element Mo, Element Nb]","{'Mo': 0.05, 'Nb': 0.95}",Other,2
Mo0.1Nb0.9,6.38,Mo0.1 Nb0.9,"[Element Mo, Element Nb]","{'Mo': 0.1, 'Nb': 0.9}",Other,2
Mo0.15Nb0.85,5.3,Mo0.15 Nb0.85,"[Element Mo, Element Nb]","{'Mo': 0.15, 'Nb': 0.85}",Other,2
Mo0.2Nb0.8,4.23,Mo0.2 Nb0.8,"[Element Mo, Element Nb]","{'Mo': 0.2, 'Nb': 0.8}",Other,2
Mo0.25Nb0.75,3.47,Mo0.25 Nb0.75,"[Element Mo, Element Nb]","{'Mo': 0.25, 'Nb': 0.75}",Other,2