chemical_formula,Tc,composition,elements,stoichiometry,Category,num_elements
Ca10Pt4.054Fe9.7As18,26.5,Ca10 Pt4.054 Fe9.7 As18,"[Element Ca, Element Pt, Element Fe, Element As]","{'Ca': 10.0, 'Pt': 4.054, 'Fe': 9.7, 'As': 18.0}",Fe-based,4
Ru0.7Rh0.3P1,1.13,Ru0.7 Rh0.3 P1,"[Element Ru, Element Rh, Element P]","{'Ru': 0.7, 'Rh': 0.3, 'P': 1.0}",Other,3
Ru0.55Rh0.45P1,3.6,Ru0.55 Rh0.45 P1,"[Element Ru, Element Rh, Element P]","{'Ru': 0.55, 'Rh': 0.45, 'P': 1.0}",Other,3
Ru0.4Rh0.6P1,1.27,Ru0.4 Rh0.6 P1,"[Element Ru, Element Rh, Element P]","{'Ru': 0.4, 'Rh': 0.6, 'P': 1.0}",Other,3
Ru0.86Rh0.14As1,0.75,Ru0.86 Rh0.14 As1,"[Element Ru, Element Rh, Element As]","{'Ru': 0.86, 'Rh': 0.14, 'As': 1.0}",Other,3
Ru0.77Rh0.23As1,1.88,Ru0.77 Rh0.23 As1,"[Element Ru, Element Rh, Element As]","{'Ru': 0.77, 'Rh': 0.23, 'As': 1.0}",Other,3
Ru0.58Rh0.42As1,0.68,Ru0.58 Rh0.42 As1,"[Element Ru, Element Rh, Element As]","{'Ru': 0.58, 'Rh': 0.42, 'As': 1.0}",Other,3
Ru1Sb1,1.2,Ru1 Sb1,"[Element Ru, Element Sb]","{'Ru': 1.0, 'Sb': 1.0}",Other,2
Eu0.5K0.5Fe1.94Ni0.06As2,23.0,Eu0.5 K0.5 Fe1.94 Ni0.06 As2,"[Element Eu, Element K, Element Fe, Element Ni, Element As]","{'Eu': 0.5, 'K': 0.5, 'Fe': 1.94, 'Ni': 0.06, 'As': 2.0}",Fe-based,5
Eu0.5K0.5Fe1.9Ni0.1As2,18.0,Eu0.5 K0.5 Fe1.9 Ni0.1 As2,"[Element Eu, Element K, Element Fe, Element Ni, Element As]","{'Eu': 0.5, 'K': 0.5, 'Fe': 1.9, 'Ni': 0.1, 'As': 2.0}",Fe-based,5
K0.5Ti1N1Cl1,16.0,K0.5 Ti1 N1 Cl1,"[Element K, Element Ti, Element N, Element Cl]","{'K': 0.5, 'Ti': 1.0, 'N': 1.0, 'Cl': 1.0}",Other,4
Hf1N1Cl0.7,24.0,Hf1 N1 Cl0.7,"[Element Hf, Element N, Element Cl]","{'Hf': 1.0, 'N': 1.0, 'Cl': 0.7}",Other,3
Ga3Sc1,2.1,Ga3 Sc1,"[Element Ga, Element Sc]","{'Ga': 3.0, 'Sc': 1.0}",Other,2
Rb0.8Fe2Se1.9Te0.1,26.25,Rb0.8 Fe2 Se1.9 Te0.1,"[Element Rb, Element Fe, Element Se, Element Te]","{'Rb': 0.8, 'Fe': 2.0, 'Se': 1.9, 'Te': 0.1}",Fe-based,4
Rb0.8Fe2Se1.8Te0.2,25.05,Rb0.8 Fe2 Se1.8 Te0.2,"[Element Rb, Element Fe, Element Se, Element Te]","{'Rb': 0.8, 'Fe': 2.0, 'Se': 1.8, 'Te': 0.2}",Fe-based,4
Rb0.8Fe2Se1.75Te0.25,22.2,Rb0.8 Fe2 Se1.75 Te0.25,"[Element Rb, Element Fe, Element Se, Element Te]","{'Rb': 0.8, 'Fe': 2.0, 'Se': 1.75, 'Te': 0.25}",Fe-based,4
Rb0.8Fe2Se1.7Te0.3,25.5,Rb0.8 Fe2 Se1.7 Te0.3,"[Element Rb, Element Fe, Element Se, Element Te]","{'Rb': 0.8, 'Fe': 2.0, 'Se': 1.7, 'Te': 0.3}",Fe-based,4
Ca0.67Sr0.33Fe2As2,22.0,Ca0.67 Sr0.33 Fe2 As2,"[Element Ca, Element Sr, Element Fe, Element As]","{'Ca': 0.67, 'Sr': 0.33, 'Fe': 2.0, 'As': 2.0}",Fe-based,4
Ba0.5K0.5Fe1.9Mn0.1As2,9.53,Ba0.5 K0.5 Fe1.9 Mn0.1 As2,"[Element Ba, Element K, Element Fe, Element Mn, Element As]","{'Ba': 0.5, 'K': 0.5, 'Fe': 1.9, 'Mn': 0.1, 'As': 2.0}",Fe-based,5
Ba0.5K0.5Fe1.9Ru0.1As2,37.14,Ba0.5 K0.5 Fe1.9 Ru0.1 As2,"[Element Ba, Element K, Element Fe, Element Ru, Element As]","{'Ba': 0.5, 'K': 0.5, 'Fe': 1.9, 'Ru': 0.1, 'As': 2.0}",Fe-based,5
Ba0.5K0.5Fe1.9Co0.1As2,30.31,Ba0.5 K0.5 Fe1.9 Co0.1 As2,"[Element Ba, Element K, Element Fe, Element Co, Element As]","{'Ba': 0.5, 'K': 0.5, 'Fe': 1.9, 'Co': 0.1, 'As': 2.0}",Fe-based,5
Ba0.5K0.5Fe1.9Ni0.1As2,26.75,Ba0.5 K0.5 Fe1.9 Ni0.1 As2,"[Element Ba, Element K, Element Fe, Element Ni, Element As]","{'Ba': 0.5, 'K': 0.5, 'Fe': 1.9, 'Ni': 0.1, 'As': 2.0}",Fe-based,5
Ba0.5K0.5Fe1.9Cu0.1As2,22.29,Ba0.5 K0.5 Fe1.9 Cu0.1 As2,"[Element Ba, Element K, Element Fe, Element Cu, Element As]","{'Ba': 0.5, 'K': 0.5, 'Fe': 1.9, 'Cu': 0.1, 'As': 2.0}",Fe-based,5
Ba0.5K0.5Fe1.8Cu0.2As2,11.83,Ba0.5 K0.5 Fe1.8 Cu0.2 As2,"[Element Ba, Element K, Element Fe, Element Cu, Element As]","{'Ba': 0.5, 'K': 0.5, 'Fe': 1.8, 'Cu': 0.2, 'As': 2.0}",Fe-based,5
Ba0.5K0.5Fe1.8Ni0.2As2,11.1,Ba0.5 K0.5 Fe1.8 Ni0.2 As2,"[Element Ba, Element K, Element Fe, Element Ni, Element As]","{'Ba': 0.5, 'K': 0.5, 'Fe': 1.8, 'Ni': 0.2, 'As': 2.0}",Fe-based,5
Ba0.5K0.5Fe1.7Ni0.3As2,5.1,Ba0.5 K0.5 Fe1.7 Ni0.3 As2,"[Element Ba, Element K, Element Fe, Element Ni, Element As]","{'Ba': 0.5, 'K': 0.5, 'Fe': 1.7, 'Ni': 0.3, 'As': 2.0}",Fe-based,5
Ba0.5K0.5Fe1.8Co0.2As2,19.95,Ba0.5 K0.5 Fe1.8 Co0.2 As2,"[Element Ba, Element K, Element Fe, Element Co, Element As]","{'Ba': 0.5, 'K': 0.5, 'Fe': 1.8, 'Co': 0.2, 'As': 2.0}",Fe-based,5
Ba0.5K0.5Fe1.7Co0.3As2,13.56,Ba0.5 K0.5 Fe1.7 Co0.3 As2,"[Element Ba, Element K, Element Fe, Element Co, Element As]","{'Ba': 0.5, 'K': 0.5, 'Fe': 1.7, 'Co': 0.3, 'As': 2.0}",Fe-based,5
Ba0.5K0.5Fe1.8Ru0.2As2,36.5,Ba0.5 K0.5 Fe1.8 Ru0.2 As2,"[Element Ba, Element K, Element Fe, Element Ru, Element As]","{'Ba': 0.5, 'K': 0.5, 'Fe': 1.8, 'Ru': 0.2, 'As': 2.0}",Fe-based,5
Rb0.8Fe1.6Se2,32.4,Rb0.8 Fe1.6 Se2,"[Element Rb, Element Fe, Element Se]","{'Rb': 0.8, 'Fe': 1.6, 'Se': 2.0}",Fe-based,3
Ce1Fe1As1H0.07O0.93,31.3,Ce1 Fe1 As1 H0.07 O0.93,"[Element Ce, Element Fe, Element As, Element H, Element O]","{'Ce': 1.0, 'Fe': 1.0, 'As': 1.0, 'H': 0.07, 'O': 0.93}",Fe-based,5
Ce1Fe1As1H0.2O0.8,45.6,Ce1 Fe1 As1 H0.2 O0.8,"[Element Ce, Element Fe, Element As, Element H, Element O]","{'Ce': 1.0, 'Fe': 1.0, 'As': 1.0, 'H': 0.2, 'O': 0.8}",Fe-based,5
Ce1Fe1As1H0.3O0.7,44.9,Ce1 Fe1 As1 H0.3 O0.7,"[Element Ce, Element Fe, Element As, Element H, Element O]","{'Ce': 1.0, 'Fe': 1.0, 'As': 1.0, 'H': 0.3, 'O': 0.7}",Fe-based,5
Ce1Fe1As1H0.4O0.6,37.3,Ce1 Fe1 As1 H0.4 O0.6,"[Element Ce, Element Fe, Element As, Element H, Element O]","{'Ce': 1.0, 'Fe': 1.0, 'As': 1.0, 'H': 0.4, 'O': 0.6}",Fe-based,5
Ba0.55K0.45Fe1.95Co0.05As2,32.5,Ba0.55 K0.45 Fe1.95 Co0.05 As2,"[Element Ba, Element K, Element Fe, Element Co, Element As]","{'Ba': 0.55, 'K': 0.45, 'Fe': 1.95, 'Co': 0.05, 'As': 2.0}",Fe-based,5
Na1Fe0.979Co0.021As1,19.4,Na1 Fe0.979 Co0.021 As1,"[Element Na, Element Fe, Element Co, Element As]","{'Na': 1.0, 'Fe': 0.979, 'Co': 0.021, 'As': 1.0}",Fe-based,4
Na1Fe0.972Co0.028As1,20.1,Na1 Fe0.972 Co0.028 As1,"[Element Na, Element Fe, Element Co, Element As]","{'Na': 1.0, 'Fe': 0.972, 'Co': 0.028, 'As': 1.0}",Fe-based,4
Na1Fe0.939Co0.061As1,13.4,Na1 Fe0.939 Co0.061 As1,"[Element Na, Element Fe, Element Co, Element As]","{'Na': 1.0, 'Fe': 0.939, 'Co': 0.061, 'As': 1.0}",Fe-based,4
Na1Fe0.925Co0.075As1,10.6,Na1 Fe0.925 Co0.075 As1,"[Element Na, Element Fe, Element Co, Element As]","{'Na': 1.0, 'Fe': 0.925, 'Co': 0.075, 'As': 1.0}",Fe-based,4
Ca10Pt3.213Fe9.787As18,4.3,Ca10 Pt3.213 Fe9.787 As18,"[Element Ca, Element Pt, Element Fe, Element As]","{'Ca': 10.0, 'Pt': 3.213, 'Fe': 9.787, 'As': 18.0}",Fe-based,4
Ca10Pt3.474Fe9.526As18,11.85,Ca10 Pt3.474 Fe9.526 As18,"[Element Ca, Element Pt, Element Fe, Element As]","{'Ca': 10.0, 'Pt': 3.474, 'Fe': 9.526, 'As': 18.0}",Fe-based,4
Ca10Pt3.53Fe9.47As18,15.8,Ca10 Pt3.53 Fe9.47 As18,"[Element Ca, Element Pt, Element Fe, Element As]","{'Ca': 10.0, 'Pt': 3.53, 'Fe': 9.47, 'As': 18.0}",Fe-based,4
Ca10Pt3.617Fe9.383As18,13.6,Ca10 Pt3.617 Fe9.383 As18,"[Element Ca, Element Pt, Element Fe, Element As]","{'Ca': 10.0, 'Pt': 3.617, 'Fe': 9.383, 'As': 18.0}",Fe-based,4
Ca10Pt3.981Fe9.019As18,7.49,Ca10 Pt3.981 Fe9.019 As18,"[Element Ca, Element Pt, Element Fe, Element As]","{'Ca': 10.0, 'Pt': 3.981, 'Fe': 9.019, 'As': 18.0}",Fe-based,4
Ce1Fe1As0.7P0.3O1,4.0,Ce1 Fe1 As0.7 P0.3 O1,"[Element Ce, Element Fe, Element As, Element P, Element O]","{'Ce': 1.0, 'Fe': 1.0, 'As': 0.7, 'P': 0.3, 'O': 1.0}",Fe-based,5
La1Ru2.97Fe0.03Si2,6.22,La1 Ru2.97 Fe0.03 Si2,"[Element La, Element Ru, Element Fe, Element Si]","{'La': 1.0, 'Ru': 2.97, 'Fe': 0.03, 'Si': 2.0}",Fe-based,4
La1Ru2.94Fe0.06Si2,4.58,La1 Ru2.94 Fe0.06 Si2,"[Element La, Element Ru, Element Fe, Element Si]","{'La': 1.0, 'Ru': 2.94, 'Fe': 0.06, 'Si': 2.0}",Fe-based,4