chemical_formula,Tc,composition,elements,stoichiometry,Category,num_elements
La0.85Ce0.15Ru2,2.444,La0.85 Ce0.15 Ru2,"[Element La, Element Ce, Element Ru]","{'La': 0.85, 'Ce': 0.15, 'Ru': 2.0}",Other,3
La0.8Ce0.2Ru2,2.01,La0.8 Ce0.2 Ru2,"[Element La, Element Ce, Element Ru]","{'La': 0.8, 'Ce': 0.2, 'Ru': 2.0}",Other,3
La0.76Ce0.24Ru2,1.468,La0.76 Ce0.24 Ru2,"[Element La, Element Ce, Element Ru]","{'La': 0.76, 'Ce': 0.24, 'Ru': 2.0}",Other,3
La0.72Ce0.28Ru2,1.278,La0.72 Ce0.28 Ru2,"[Element La, Element Ce, Element Ru]","{'La': 0.72, 'Ce': 0.28, 'Ru': 2.0}",Other,3
La0.6Ce0.4Ru2,0.727,La0.6 Ce0.4 Ru2,"[Element La, Element Ce, Element Ru]","{'La': 0.6, 'Ce': 0.4, 'Ru': 2.0}",Other,3
La0.5Ce0.5Ru2,0.449,La0.5 Ce0.5 Ru2,"[Element La, Element Ce, Element Ru]","{'La': 0.5, 'Ce': 0.5, 'Ru': 2.0}",Other,3
La0.46Ce0.54Ru2,0.668,La0.46 Ce0.54 Ru2,"[Element La, Element Ce, Element Ru]","{'La': 0.46, 'Ce': 0.54, 'Ru': 2.0}",Other,3
La0.4Ce0.6Ru2,1.3,La0.4 Ce0.6 Ru2,"[Element La, Element Ce, Element Ru]","{'La': 0.4, 'Ce': 0.6, 'Ru': 2.0}",Other,3
La0.35Ce0.65Ru2,1.647,La0.35 Ce0.65 Ru2,"[Element La, Element Ce, Element Ru]","{'La': 0.35, 'Ce': 0.65, 'Ru': 2.0}",Other,3
La0.3Ce0.7Ru2,2.134,La0.3 Ce0.7 Ru2,"[Element La, Element Ce, Element Ru]","{'La': 0.3, 'Ce': 0.7, 'Ru': 2.0}",Other,3
La0.25Ce0.75Ru2,3.196,La0.25 Ce0.75 Ru2,"[Element La, Element Ce, Element Ru]","{'La': 0.25, 'Ce': 0.75, 'Ru': 2.0}",Other,3
La0.1Ce0.9Ru2,7.194,La0.1 Ce0.9 Ru2,"[Element La, Element Ce, Element Ru]","{'La': 0.1, 'Ce': 0.9, 'Ru': 2.0}",Other,3
La0.05Ce0.95Ru2,7.181,La0.05 Ce0.95 Ru2,"[Element La, Element Ce, Element Ru]","{'La': 0.05, 'Ce': 0.95, 'Ru': 2.0}",Other,3
La5B2C6,6.9,La5 B2 C6,"[Element La, Element B, Element C]","{'La': 5.0, 'B': 2.0, 'C': 6.0}",Other,3
Lu1Mo6S8,2.2,Lu1 Mo6 S8,"[Element Lu, Element Mo, Element S]","{'Lu': 1.0, 'Mo': 6.0, 'S': 8.0}",Other,3
Pb1Mo5.1S4,14.51,Pb1 Mo5.1 S4,"[Element Pb, Element Mo, Element S]","{'Pb': 1.0, 'Mo': 5.1, 'S': 4.0}",Other,3
Tl0.45Bi0.46Mo6S7.5,6.41,Tl0.45 Bi0.46 Mo6 S7.5,"[Element Tl, Element Bi, Element Mo, Element S]","{'Tl': 0.45, 'Bi': 0.46, 'Mo': 6.0, 'S': 7.5}",Other,4
Sc1Mo6S7,2.67,Sc1 Mo6 S7,"[Element Sc, Element Mo, Element S]","{'Sc': 1.0, 'Mo': 6.0, 'S': 7.0}",Other,3
Mg1Mo6S7,2.72,Mg1 Mo6 S7,"[Element Mg, Element Mo, Element S]","{'Mg': 1.0, 'Mo': 6.0, 'S': 7.0}",Other,3
Cu0.7Mo3Se4,5.9,Cu0.7 Mo3 Se4,"[Element Cu, Element Mo, Element Se]","{'Cu': 0.7, 'Mo': 3.0, 'Se': 4.0}",Other,3
Ag0.7Mo4Se5,5.96,Ag0.7 Mo4 Se5,"[Element Ag, Element Mo, Element Se]","{'Ag': 0.7, 'Mo': 4.0, 'Se': 5.0}",Other,3
Sn0.7Mo3Se4,4.85,Sn0.7 Mo3 Se4,"[Element Sn, Element Mo, Element Se]","{'Sn': 0.7, 'Mo': 3.0, 'Se': 4.0}",Other,3
Pb1.2Mo6Se8,4.32,Pb1.2 Mo6 Se8,"[Element Pb, Element Mo, Element Se]","{'Pb': 1.2, 'Mo': 6.0, 'Se': 8.0}",Other,3
V3Ge0.9Al0.1,8.8,V3 Ge0.9 Al0.1,"[Element V, Element Ge, Element Al]","{'V': 3.0, 'Ge': 0.9, 'Al': 0.1}",Other,3
V3Ge0.8Al0.2,11.02,V3 Ge0.8 Al0.2,"[Element V, Element Ge, Element Al]","{'V': 3.0, 'Ge': 0.8, 'Al': 0.2}",Other,3
V3Ge0.7Al0.3,11.17,V3 Ge0.7 Al0.3,"[Element V, Element Ge, Element Al]","{'V': 3.0, 'Ge': 0.7, 'Al': 0.3}",Other,3
Ir0.33V0.67,1.6,Ir0.33 V0.67,"[Element Ir, Element V]","{'Ir': 0.33, 'V': 0.67}",Other,2
Nb0.78Al0.165Ge0.055,20.29,Nb0.78 Al0.165 Ge0.055,"[Element Nb, Element Al, Element Ge]","{'Nb': 0.78, 'Al': 0.165, 'Ge': 0.055}",Other,3
Sn1.2Mo6.35S8,10.7,Sn1.2 Mo6.35 S8,"[Element Sn, Element Mo, Element S]","{'Sn': 1.2, 'Mo': 6.35, 'S': 8.0}",Other,3
Sn1.08Eu0.1Mo6.35S8,10.9,Sn1.08 Eu0.1 Mo6.35 S8,"[Element Sn, Element Eu, Element Mo, Element S]","{'Sn': 1.08, 'Eu': 0.1, 'Mo': 6.35, 'S': 8.0}",Other,4
Sn0.96Eu0.2Mo6.35S8,10.7,Sn0.96 Eu0.2 Mo6.35 S8,"[Element Sn, Element Eu, Element Mo, Element S]","{'Sn': 0.96, 'Eu': 0.2, 'Mo': 6.35, 'S': 8.0}",Other,4
Sn0.84Eu0.3Mo6.35S8,10.6,Sn0.84 Eu0.3 Mo6.35 S8,"[Element Sn, Element Eu, Element Mo, Element S]","{'Sn': 0.84, 'Eu': 0.3, 'Mo': 6.35, 'S': 8.0}",Other,4
Sn0.72Eu0.4Mo6.35S8,10.1,Sn0.72 Eu0.4 Mo6.35 S8,"[Element Sn, Element Eu, Element Mo, Element S]","{'Sn': 0.72, 'Eu': 0.4, 'Mo': 6.35, 'S': 8.0}",Other,4
Sn0.6Eu0.5Mo6.35S8,10.2,Sn0.6 Eu0.5 Mo6.35 S8,"[Element Sn, Element Eu, Element Mo, Element S]","{'Sn': 0.6, 'Eu': 0.5, 'Mo': 6.35, 'S': 8.0}",Other,4
Sn0.48Eu0.6Mo6.35S8,9.2,Sn0.48 Eu0.6 Mo6.35 S8,"[Element Sn, Element Eu, Element Mo, Element S]","{'Sn': 0.48, 'Eu': 0.6, 'Mo': 6.35, 'S': 8.0}",Other,4
Sn0.36Eu0.7Mo6.35S8,7.94,Sn0.36 Eu0.7 Mo6.35 S8,"[Element Sn, Element Eu, Element Mo, Element S]","{'Sn': 0.36, 'Eu': 0.7, 'Mo': 6.35, 'S': 8.0}",Other,4
Sn0.24Eu0.8Mo6.35S8,6.0,Sn0.24 Eu0.8 Mo6.35 S8,"[Element Sn, Element Eu, Element Mo, Element S]","{'Sn': 0.24, 'Eu': 0.8, 'Mo': 6.35, 'S': 8.0}",Other,4
Sn0.12Eu0.9Mo6.35S8,0.94,Sn0.12 Eu0.9 Mo6.35 S8,"[Element Sn, Element Eu, Element Mo, Element S]","{'Sn': 0.12, 'Eu': 0.9, 'Mo': 6.35, 'S': 8.0}",Other,4
Pb0.7Eu0.3Mo6.35S8,13.6,Pb0.7 Eu0.3 Mo6.35 S8,"[Element Pb, Element Eu, Element Mo, Element S]","{'Pb': 0.7, 'Eu': 0.3, 'Mo': 6.35, 'S': 8.0}",Other,4
Mo6Se5Cl3,5.7,Mo6 Se5 Cl3,"[Element Mo, Element Se, Element Cl]","{'Mo': 6.0, 'Se': 5.0, 'Cl': 3.0}",Other,3
Mo6Se5Br3,7.1,Mo6 Se5 Br3,"[Element Mo, Element Se, Element Br]","{'Mo': 6.0, 'Se': 5.0, 'Br': 3.0}",Other,3
Mo6Se5I3,4.2,Mo6 Se5 I3,"[Element Mo, Element Se, Element I]","{'Mo': 6.0, 'Se': 5.0, 'I': 3.0}",Other,3
Mo5.25Nb0.75Se8,6.2,Mo5.25 Nb0.75 Se8,"[Element Mo, Element Nb, Element Se]","{'Mo': 5.25, 'Nb': 0.75, 'Se': 8.0}",Other,3
Mo4Re2Te8,3.5,Mo4 Re2 Te8,"[Element Mo, Element Re, Element Te]","{'Mo': 4.0, 'Re': 2.0, 'Te': 8.0}",Other,3
Mo6Te5I3,2.4,Mo6 Te5 I3,"[Element Mo, Element Te, Element I]","{'Mo': 6.0, 'Te': 5.0, 'I': 3.0}",Other,3
Cu2Mo6S6O2,9.0,Cu2 Mo6 S6 O2,"[Element Cu, Element Mo, Element S, Element O]","{'Cu': 2.0, 'Mo': 6.0, 'S': 6.0, 'O': 2.0}",Cuprates,4
Pb1Mo6S6O2,11.7,Pb1 Mo6 S6 O2,"[Element Pb, Element Mo, Element S, Element O]","{'Pb': 1.0, 'Mo': 6.0, 'S': 6.0, 'O': 2.0}",Other,4
Ag0.7Mo3Se4,5.96,Ag0.7 Mo3 Se4,"[Element Ag, Element Mo, Element Se]","{'Ag': 0.7, 'Mo': 3.0, 'Se': 4.0}",Other,3
K0.18W1O3,3.9,K0.18 W1 O3,"[Element K, Element W, Element O]","{'K': 0.18, 'W': 1.0, 'O': 3.0}",Other,3
Cs0.19W1O3,6.7,Cs0.19 W1 O3,"[Element Cs, Element W, Element O]","{'Cs': 0.19, 'W': 1.0, 'O': 3.0}",Other,3
Cr4.84Ga25V70.16,12.14,Cr4.84 Ga25 V70.16,"[Element Cr, Element Ga, Element V]","{'Cr': 4.84, 'Ga': 25.0, 'V': 70.16}",Other,3
Cr34.9Ga25V40.1,5.48,Cr34.9 Ga25 V40.1,"[Element Cr, Element Ga, Element V]","{'Cr': 34.9, 'Ga': 25.0, 'V': 40.1}",Other,3
Ga25Mn4.92V70.08,10.1,Ga25 Mn4.92 V70.08,"[Element Ga, Element Mn, Element V]","{'Ga': 25.0, 'Mn': 4.92, 'V': 70.08}",Other,3
Ga25Mn14V61,4.22,Ga25 Mn14 V61,"[Element Ga, Element Mn, Element V]","{'Ga': 25.0, 'Mn': 14.0, 'V': 61.0}",Other,3
Fe4.97Ga25V70.03,8.59,Fe4.97 Ga25 V70.03,"[Element Fe, Element Ga, Element V]","{'Fe': 4.97, 'Ga': 25.0, 'V': 70.03}",Fe-based,3
Fe9.92Ga25V65.08,4.65,Fe9.92 Ga25 V65.08,"[Element Fe, Element Ga, Element V]","{'Fe': 9.92, 'Ga': 25.0, 'V': 65.08}",Fe-based,3
Co4.95Ga25V70.05,7.56,Co4.95 Ga25 V70.05,"[Element Co, Element Ga, Element V]","{'Co': 4.95, 'Ga': 25.0, 'V': 70.05}",Other,3
Co7.32Ga25V67.68,5.03,Co7.32 Ga25 V67.68,"[Element Co, Element Ga, Element V]","{'Co': 7.32, 'Ga': 25.0, 'V': 67.68}",Other,3
Ge0.937Te1,0.311,Ge0.937 Te1,"[Element Ge, Element Te]","{'Ge': 0.937, 'Te': 1.0}",Other,2
Ge0.95Te1,0.246,Ge0.95 Te1,"[Element Ge, Element Te]","{'Ge': 0.95, 'Te': 1.0}",Other,2
Ge0.963Te1,0.171,Ge0.963 Te1,"[Element Ge, Element Te]","{'Ge': 0.963, 'Te': 1.0}",Other,2
Tl1Bi1Te2,0.141,Tl1 Bi1 Te2,"[Element Tl, Element Bi, Element Te]","{'Tl': 1.0, 'Bi': 1.0, 'Te': 2.0}",Other,3
Sn0.9Ag0.07Te1,1.73,Sn0.9 Ag0.07 Te1,"[Element Sn, Element Ag, Element Te]","{'Sn': 0.9, 'Ag': 0.07, 'Te': 1.0}",Other,3
Sn0.92Ag0.05Te1,1.66,Sn0.92 Ag0.05 Te1,"[Element Sn, Element Ag, Element Te]","{'Sn': 0.92, 'Ag': 0.05, 'Te': 1.0}",Other,3
Mo0.81Pt0.19,4.53,Mo0.81 Pt0.19,"[Element Mo, Element Pt]","{'Mo': 0.81, 'Pt': 0.19}",Other,2
Au0.9Ga0.1,0.264,Au0.9 Ga0.1,"[Element Au, Element Ga]","{'Au': 0.9, 'Ga': 0.1}",Other,2
Au0.95Ga0.05,0.032,Au0.95 Ga0.05,"[Element Au, Element Ga]","{'Au': 0.95, 'Ga': 0.05}",Other,2
Al0.14Au0.86,0.385,Al0.14 Au0.86,"[Element Al, Element Au]","{'Al': 0.14, 'Au': 0.86}",Other,2
Al0.05Au0.95,0.0138,Al0.05 Au0.95,"[Element Al, Element Au]","{'Al': 0.05, 'Au': 0.95}",Other,2
Au0.95Sn0.05,0.047,Au0.95 Sn0.05,"[Element Au, Element Sn]","{'Au': 0.95, 'Sn': 0.05}",Other,2
Ag0.828Ga0.172,0.116,Ag0.828 Ga0.172,"[Element Ag, Element Ga]","{'Ag': 0.828, 'Ga': 0.172}",Other,2
Ag0.875Ga0.125,0.019,Ag0.875 Ga0.125,"[Element Ag, Element Ga]","{'Ag': 0.875, 'Ga': 0.125}",Other,2
Cu0.81Ga0.19,0.048,Cu0.81 Ga0.19,"[Element Cu, Element Ga]","{'Cu': 0.81, 'Ga': 0.19}",Other,2
Au1Sc1,2.0,Au1 Sc1,"[Element Au, Element Sc]","{'Au': 1.0, 'Sc': 1.0}",Other,2
Au1Lu1,0.37,Au1 Lu1,"[Element Au, Element Lu]","{'Au': 1.0, 'Lu': 1.0}",Other,2
Al1Sc1Au2,4.4,Al1 Sc1 Au2,"[Element Al, Element Sc, Element Au]","{'Al': 1.0, 'Sc': 1.0, 'Au': 2.0}",Other,3
In1Sc1Au2,3.02,In1 Sc1 Au2,"[Element In, Element Sc, Element Au]","{'In': 1.0, 'Sc': 1.0, 'Au': 2.0}",Other,3
Al0.08Au0.92,0.088,Al0.08 Au0.92,"[Element Al, Element Au]","{'Al': 0.08, 'Au': 0.92}",Other,2
Al0.07Au0.92In0.01,0.0763,Al0.07 Au0.92 In0.01,"[Element Al, Element Au, Element In]","{'Al': 0.07, 'Au': 0.92, 'In': 0.01}",Other,3
Al0.06Au0.92In0.02,0.0619,Al0.06 Au0.92 In0.02,"[Element Al, Element Au, Element In]","{'Al': 0.06, 'Au': 0.92, 'In': 0.02}",Other,3
Al0.0563Au0.92In0.0237,0.0609,Al0.0563 Au0.92 In0.0237,"[Element Al, Element Au, Element In]","{'Al': 0.0563, 'Au': 0.92, 'In': 0.0237}",Other,3
Al0.05Au0.92In0.03,0.0672,Al0.05 Au0.92 In0.03,"[Element Al, Element Au, Element In]","{'Al': 0.05, 'Au': 0.92, 'In': 0.03}",Other,3
Al0.04Au0.92In0.04,0.0555,Al0.04 Au0.92 In0.04,"[Element Al, Element Au, Element In]","{'Al': 0.04, 'Au': 0.92, 'In': 0.04}",Other,3
Al0.03Au0.92In0.05,0.045,Al0.03 Au0.92 In0.05,"[Element Al, Element Au, Element In]","{'Al': 0.03, 'Au': 0.92, 'In': 0.05}",Other,3
Al0.02Au0.92In0.06,0.034,Al0.02 Au0.92 In0.06,"[Element Al, Element Au, Element In]","{'Al': 0.02, 'Au': 0.92, 'In': 0.06}",Other,3
Al0.01Au0.92In0.07,0.0278,Al0.01 Au0.92 In0.07,"[Element Al, Element Au, Element In]","{'Al': 0.01, 'Au': 0.92, 'In': 0.07}",Other,3
Au0.92Ga0.08,0.168,Au0.92 Ga0.08,"[Element Au, Element Ga]","{'Au': 0.92, 'Ga': 0.08}",Other,2
Au0.92Ga0.068In0.012,0.137,Au0.92 Ga0.068 In0.012,"[Element Au, Element Ga, Element In]","{'Au': 0.92, 'Ga': 0.068, 'In': 0.012}",Other,3
Au0.92Ga0.06In0.02,0.13,Au0.92 Ga0.06 In0.02,"[Element Au, Element Ga, Element In]","{'Au': 0.92, 'Ga': 0.06, 'In': 0.02}",Other,3
Au0.92Ga0.04In0.04,0.0682,Au0.92 Ga0.04 In0.04,"[Element Au, Element Ga, Element In]","{'Au': 0.92, 'Ga': 0.04, 'In': 0.04}",Other,3
Au0.92Ga0.02In0.06,0.0425,Au0.92 Ga0.02 In0.06,"[Element Au, Element Ga, Element In]","{'Au': 0.92, 'Ga': 0.02, 'In': 0.06}",Other,3
Al0.02Au0.92Ga0.06,0.158,Al0.02 Au0.92 Ga0.06,"[Element Al, Element Au, Element Ga]","{'Al': 0.02, 'Au': 0.92, 'Ga': 0.06}",Other,3
Al0.04Au0.92Ga0.04,0.101,Al0.04 Au0.92 Ga0.04,"[Element Al, Element Au, Element Ga]","{'Al': 0.04, 'Au': 0.92, 'Ga': 0.04}",Other,3
Al0.06Au0.92Ga0.02,0.09,Al0.06 Au0.92 Ga0.02,"[Element Al, Element Au, Element Ga]","{'Al': 0.06, 'Au': 0.92, 'Ga': 0.02}",Other,3
Er1Pb2,7.4,Er1 Pb2,"[Element Er, Element Pb]","{'Er': 1.0, 'Pb': 2.0}",Other,2
Cu6La1,0.042,Cu6 La1,"[Element Cu, Element La]","{'Cu': 6.0, 'La': 1.0}",Other,2
Cu6Th1,0.2,Cu6 Th1,"[Element Cu, Element Th]","{'Cu': 6.0, 'Th': 1.0}",Other,2
Cu0.7Nb0.3,9.39,Cu0.7 Nb0.3,"[Element Cu, Element Nb]","{'Cu': 0.7, 'Nb': 0.3}",Other,2
Cu0.7In0.01Nb0.29,9.04,Cu0.7 In0.01 Nb0.29,"[Element Cu, Element In, Element Nb]","{'Cu': 0.7, 'In': 0.01, 'Nb': 0.29}",Other,3
Cu0.7Nb0.29Ta0.01,9.25,Cu0.7 Nb0.29 Ta0.01,"[Element Cu, Element Nb, Element Ta]","{'Cu': 0.7, 'Nb': 0.29, 'Ta': 0.01}",Other,3
Be13U0.9934Th0.0066,0.67,Be13 U0.9934 Th0.0066,"[Element Be, Element U, Element Th]","{'Be': 13.0, 'U': 0.9934, 'Th': 0.0066}",Other,3
Be13U0.9899Th0.0101,0.65,Be13 U0.9899 Th0.0101,"[Element Be, Element U, Element Th]","{'Be': 13.0, 'U': 0.9899, 'Th': 0.0101}",Other,3
Be13U0.9807Th0.0193,0.48,Be13 U0.9807 Th0.0193,"[Element Be, Element U, Element Th]","{'Be': 13.0, 'U': 0.9807, 'Th': 0.0193}",Other,3
Be13U0.9755Th0.0245,0.59,Be13 U0.9755 Th0.0245,"[Element Be, Element U, Element Th]","{'Be': 13.0, 'U': 0.9755, 'Th': 0.0245}",Other,3
Be13U0.9645Th0.0355,0.55,Be13 U0.9645 Th0.0355,"[Element Be, Element U, Element Th]","{'Be': 13.0, 'U': 0.9645, 'Th': 0.0355}",Other,3
Cr3Rh1,0.07,Cr3 Rh1,"[Element Cr, Element Rh]","{'Cr': 3.0, 'Rh': 1.0}",Other,2
Tc0.97Ti0.03,10.56,Tc0.97 Ti0.03,"[Element Tc, Element Ti]","{'Tc': 0.97, 'Ti': 0.03}",Other,2
Tc0.875Ti0.125,8.7,Tc0.875 Ti0.125,"[Element Tc, Element Ti]","{'Tc': 0.875, 'Ti': 0.125}",Other,2
Tc0.75Ti0.25,5.1,Tc0.75 Ti0.25,"[Element Tc, Element Ti]","{'Tc': 0.75, 'Ti': 0.25}",Other,2
Tc0.25Ti0.75,2.7,Tc0.25 Ti0.75,"[Element Tc, Element Ti]","{'Tc': 0.25, 'Ti': 0.75}",Other,2
Ti0.85V0.15,1.95,Ti0.85 V0.15,"[Element Ti, Element V]","{'Ti': 0.85, 'V': 0.15}",Other,2
Ti0.8V0.2,4.1,Ti0.8 V0.2,"[Element Ti, Element V]","{'Ti': 0.8, 'V': 0.2}",Other,2
Ti0.4V0.6,7.3,Ti0.4 V0.6,"[Element Ti, Element V]","{'Ti': 0.4, 'V': 0.6}",Other,2
Ta1V2,3.6,Ta1 V2,"[Element Ta, Element V]","{'Ta': 1.0, 'V': 2.0}",Other,2
Se3Ta1,2.1,Se3 Ta1,"[Element Se, Element Ta]","{'Se': 3.0, 'Ta': 1.0}",Other,2
Re0.8V0.2,5.2,Re0.8 V0.2,"[Element Re, Element V]","{'Re': 0.8, 'V': 0.2}",Other,2
Re2Si1,3.8,Re2 Si1,"[Element Re, Element Si]","{'Re': 2.0, 'Si': 1.0}",Other,2
Mo0.15Ti0.85,4.08,Mo0.15 Ti0.85,"[Element Mo, Element Ti]","{'Mo': 0.15, 'Ti': 0.85}",Other,2
Hf0.906Mo0.094,2.71,Hf0.906 Mo0.094,"[Element Hf, Element Mo]","{'Hf': 0.906, 'Mo': 0.094}",Other,2
Al2Si2U1,1.34,Al2 Si2 U1,"[Element Al, Element Si, Element U]","{'Al': 2.0, 'Si': 2.0, 'U': 1.0}",Other,3
Al2Ge2U1,1.6,Al2 Ge2 U1,"[Element Al, Element Ge, Element U]","{'Al': 2.0, 'Ge': 2.0, 'U': 1.0}",Other,3
Ga2Ge2U1,0.87,Ga2 Ge2 U1,"[Element Ga, Element Ge, Element U]","{'Ga': 2.0, 'Ge': 2.0, 'U': 1.0}",Other,3
Ru3U1,0.145,Ru3 U1,"[Element Ru, Element U]","{'Ru': 3.0, 'U': 1.0}",Other,2
Nb1S0.899,3.83,Nb1 S0.899,"[Element Nb, Element S]","{'Nb': 1.0, 'S': 0.899}",Other,2
Nb1S1.06,3.3,Nb1 S1.06,"[Element Nb, Element S]","{'Nb': 1.0, 'S': 1.06}",Other,2
S1.005Sc1,5.37,S1.005 Sc1,"[Element S, Element Sc]","{'S': 1.005, 'Sc': 1.0}",Other,2
Re0.71V0.29,8.4,Re0.71 V0.29,"[Element Re, Element V]","{'Re': 0.71, 'V': 0.29}",Other,2
Ir0.37V0.67,1.71,Ir0.37 V0.67,"[Element Ir, Element V]","{'Ir': 0.37, 'V': 0.67}",Other,2
Pt0.25V0.75,3.2,Pt0.25 V0.75,"[Element Pt, Element V]","{'Pt': 0.25, 'V': 0.75}",Other,2
Re0.35W0.65,6.75,Re0.35 W0.65,"[Element Re, Element W]","{'Re': 0.35, 'W': 0.65}",Other,2
Mo0.18Tc0.82,13.7,Mo0.18 Tc0.82,"[Element Mo, Element Tc]","{'Mo': 0.18, 'Tc': 0.82}",Other,2
Hf0.93Mo0.07,2.11,Hf0.93 Mo0.07,"[Element Hf, Element Mo]","{'Hf': 0.93, 'Mo': 0.07}",Other,2
Hf0.87Mo0.13,2.6,Hf0.87 Mo0.13,"[Element Hf, Element Mo]","{'Hf': 0.87, 'Mo': 0.13}",Other,2
Hf0.8Mo0.2,2.89,Hf0.8 Mo0.2,"[Element Hf, Element Mo]","{'Hf': 0.8, 'Mo': 0.2}",Other,2
C0.002N0.937Ta1,8.91,C0.002 N0.937 Ta1,"[Element C, Element N, Element Ta]","{'C': 0.002, 'N': 0.937, 'Ta': 1.0}",Other,3
C0.198N0.747Ta1,10.74,C0.198 N0.747 Ta1,"[Element C, Element N, Element Ta]","{'C': 0.198, 'N': 0.747, 'Ta': 1.0}",Other,3
C0.148N0.638Ta1,12.01,C0.148 N0.638 Ta1,"[Element C, Element N, Element Ta]","{'C': 0.148, 'N': 0.638, 'Ta': 1.0}",Other,3
C0.017N0.632Ta1,11.84,C0.017 N0.632 Ta1,"[Element C, Element N, Element Ta]","{'C': 0.017, 'N': 0.632, 'Ta': 1.0}",Other,3
C0.571N0.271Ta1,10.92,C0.571 N0.271 Ta1,"[Element C, Element N, Element Ta]","{'C': 0.571, 'N': 0.271, 'Ta': 1.0}",Other,3
C0.97Ta1,11.84,C0.97 Ta1,"[Element C, Element Ta]","{'C': 0.97, 'Ta': 1.0}",Other,2
Lu3Si5,7.0,Lu3 Si5,"[Element Lu, Element Si]","{'Lu': 3.0, 'Si': 5.0}",Other,2
Li1.035Ti1.965O4,11.75,Li1.035 Ti1.965 O4,"[Element Li, Element Ti, Element O]","{'Li': 1.035, 'Ti': 1.965, 'O': 4.0}",Other,3
La2Sn5,5.4,La2 Sn5,"[Element La, Element Sn]","{'La': 2.0, 'Sn': 5.0}",Other,2
La1Sn2,3.6,La1 Sn2,"[Element La, Element Sn]","{'La': 1.0, 'Sn': 2.0}",Other,2
La0.92Lu0.08,3.72,La0.92 Lu0.08,"[Element La, Element Lu]","{'La': 0.92, 'Lu': 0.08}",Other,2
La0.84Pr0.16,2.2,La0.84 Pr0.16,"[Element La, Element Pr]","{'La': 0.84, 'Pr': 0.16}",Other,2
Al1Ce0.01La3,3.92,Al1 Ce0.01 La3,"[Element Al, Element Ce, Element La]","{'Al': 1.0, 'Ce': 0.01, 'La': 3.0}",Other,3
Al1Ce0.0165La3,1.45,Al1 Ce0.0165 La3,"[Element Al, Element Ce, Element La]","{'Al': 1.0, 'Ce': 0.0165, 'La': 3.0}",Other,3
Al1Ce0.017La3,0.77,Al1 Ce0.017 La3,"[Element Al, Element Ce, Element La]","{'Al': 1.0, 'Ce': 0.017, 'La': 3.0}",Other,3
La0.9837Ce0.0163Sn3,4.33,La0.9837 Ce0.0163 Sn3,"[Element La, Element Ce, Element Sn]","{'La': 0.9837, 'Ce': 0.0163, 'Sn': 3.0}",Other,3
La0.9647Ce0.0333Sn3,3.03,La0.9647 Ce0.0333 Sn3,"[Element La, Element Ce, Element Sn]","{'La': 0.9647, 'Ce': 0.0333, 'Sn': 3.0}",Other,3
La0.9462Ce0.0538Sn3,1.86,La0.9462 Ce0.0538 Sn3,"[Element La, Element Ce, Element Sn]","{'La': 0.9462, 'Ce': 0.0538, 'Sn': 3.0}",Other,3
La0.9709Ce0.0291Sn3,3.47,La0.9709 Ce0.0291 Sn3,"[Element La, Element Ce, Element Sn]","{'La': 0.9709, 'Ce': 0.0291, 'Sn': 3.0}",Other,3
La0.9481Ce0.0519Sn3,1.92,La0.9481 Ce0.0519 Sn3,"[Element La, Element Ce, Element Sn]","{'La': 0.9481, 'Ce': 0.0519, 'Sn': 3.0}",Other,3
Mo0.8Nb0.2,0.095,Mo0.8 Nb0.2,"[Element Mo, Element Nb]","{'Mo': 0.8, 'Nb': 0.2}",Other,2
La7Ni3,2.1,La7 Ni3,"[Element La, Element Ni]","{'La': 7.0, 'Ni': 3.0}",Other,2
La1Sb2,0.4,La1 Sb2,"[Element La, Element Sb]","{'La': 1.0, 'Sb': 2.0}",Other,2
As3La4,6.5,As3 La4,"[Element As, Element La]","{'As': 3.0, 'La': 4.0}",Other,2
La4Sb3,0.25,La4 Sb3,"[Element La, Element Sb]","{'La': 4.0, 'Sb': 3.0}",Other,2
Bi1.5La4Sb1.5,0.158,Bi1.5 La4 Sb1.5,"[Element Bi, Element La, Element Sb]","{'Bi': 1.5, 'La': 4.0, 'Sb': 1.5}",Other,3
Bi3La4,0.155,Bi3 La4,"[Element Bi, Element La]","{'Bi': 3.0, 'La': 4.0}",Other,2
Bi2La4Pb1,2.3,Bi2 La4 Pb1,"[Element Bi, Element La, Element Pb]","{'Bi': 2.0, 'La': 4.0, 'Pb': 1.0}",Other,3
Bi1.5La4Pb1.5,2.4,Bi1.5 La4 Pb1.5,"[Element Bi, Element La, Element Pb]","{'Bi': 1.5, 'La': 4.0, 'Pb': 1.5}",Other,3
Bi1La4Pb2,2.5,Bi1 La4 Pb2,"[Element Bi, Element La, Element Pb]","{'Bi': 1.0, 'La': 4.0, 'Pb': 2.0}",Other,3
Bi3La5,0.64,Bi3 La5,"[Element Bi, Element La]","{'Bi': 3.0, 'La': 5.0}",Other,2
La2Sb1,0.75,La2 Sb1,"[Element La, Element Sb]","{'La': 2.0, 'Sb': 1.0}",Other,2
Bi1La2,0.76,Bi1 La2,"[Element Bi, Element La]","{'Bi': 1.0, 'La': 2.0}",Other,2
La3Ru1,5.55,La3 Ru1,"[Element La, Element Ru]","{'La': 3.0, 'Ru': 1.0}",Other,2
La5Ru2,2.35,La5 Ru2,"[Element La, Element Ru]","{'La': 5.0, 'Ru': 2.0}",Other,2
La3Sn1,6.2,La3 Sn1,"[Element La, Element Sn]","{'La': 3.0, 'Sn': 1.0}",Other,2
Ge1La3,3.7,Ge1 La3,"[Element Ge, Element La]","{'Ge': 1.0, 'La': 3.0}",Other,2
Hg0.5In0.5,3.81,Hg0.5 In0.5,"[Element Hg, Element In]","{'Hg': 0.5, 'In': 0.5}",Other,2
Hg0.333In0.667,4.115,Hg0.333 In0.667,"[Element Hg, Element In]","{'Hg': 0.333, 'In': 0.667}",Other,2
Ir0.42Nb0.58,4.2,Ir0.42 Nb0.58,"[Element Ir, Element Nb]","{'Ir': 0.42, 'Nb': 0.58}",Other,2
Ir0.4Nb0.55O0.05,10.5,Ir0.4 Nb0.55 O0.05,"[Element Ir, Element Nb, Element O]","{'Ir': 0.4, 'Nb': 0.55, 'O': 0.05}",Other,3
Ir0.455Nb0.455O0.09,9.2,Ir0.455 Nb0.455 O0.09,"[Element Ir, Element Nb, Element O]","{'Ir': 0.455, 'Nb': 0.455, 'O': 0.09}",Other,3
C0.03Rh0.43Ta0.54,10.0,C0.03 Rh0.43 Ta0.54,"[Element C, Element Rh, Element Ta]","{'C': 0.03, 'Rh': 0.43, 'Ta': 0.54}",Other,3
Ir0.42Ta0.58,6.6,Ir0.42 Ta0.58,"[Element Ir, Element Ta]","{'Ir': 0.42, 'Ta': 0.58}",Other,2
Ge1P1,4.2,Ge1 P1,"[Element Ge, Element P]","{'Ge': 1.0, 'P': 1.0}",Other,2
Ge1U7,1.4,Ge1 U7,"[Element Ge, Element U]","{'Ge': 1.0, 'U': 7.0}",Other,2
Ge3U5,0.99,Ge3 U5,"[Element Ge, Element U]","{'Ge': 3.0, 'U': 5.0}",Other,2