chemical_formula,Tc,composition,elements,stoichiometry,Category,num_elements
Ag7F1O8,0.3,Ag7 F1 O8,"[Element Ag, Element F, Element O]","{'Ag': 7.0, 'F': 1.0, 'O': 8.0}",Other,3
Ag7B4F4O8,0.15,Ag7 B4 F4 O8,"[Element Ag, Element B, Element F, Element O]","{'Ag': 7.0, 'B': 4.0, 'F': 4.0, 'O': 8.0}",Other,4
C8.1K1,0.152,C8.1 K1,"[Element C, Element K]","{'C': 8.1, 'K': 1.0}",Other,2
Si2Ta1,0.345,Si2 Ta1,"[Element Si, Element Ta]","{'Si': 2.0, 'Ta': 1.0}",Other,2
Pr1Ru4Sb12,0.97,Pr1 Ru4 Sb12,"[Element Pr, Element Ru, Element Sb]","{'Pr': 1.0, 'Ru': 4.0, 'Sb': 12.0}",Other,3
Nb1Se2,7.1,Nb1 Se2,"[Element Nb, Element Se]","{'Nb': 1.0, 'Se': 2.0}",Other,2
Ce1Rh1Si3,0.9,Ce1 Rh1 Si3,"[Element Ce, Element Rh, Element Si]","{'Ce': 1.0, 'Rh': 1.0, 'Si': 3.0}",Other,3
Pu1Co1Ga5,18.5,Pu1 Co1 Ga5,"[Element Pu, Element Co, Element Ga]","{'Pu': 1.0, 'Co': 1.0, 'Ga': 5.0}",Other,3
Ce1Pt3Si1,0.8,Ce1 Pt3 Si1,"[Element Ce, Element Pt, Element Si]","{'Ce': 1.0, 'Pt': 3.0, 'Si': 1.0}",Other,3
Ce1Rh1In5,2.2,Ce1 Rh1 In5,"[Element Ce, Element Rh, Element In]","{'Ce': 1.0, 'Rh': 1.0, 'In': 5.0}",Other,3
Ce2Ni3Ge5,0.22,Ce2 Ni3 Ge5,"[Element Ce, Element Ni, Element Ge]","{'Ce': 2.0, 'Ni': 3.0, 'Ge': 5.0}",Other,3
La0.6Rh4P12,17.0,La0.6 Rh4 P12,"[Element La, Element Rh, Element P]","{'La': 0.6, 'Rh': 4.0, 'P': 12.0}",Other,3
Ce1Cu2Si2,0.73,Ce1 Cu2 Si2,"[Element Ce, Element Cu, Element Si]","{'Ce': 1.0, 'Cu': 2.0, 'Si': 2.0}",Other,3
Hg0.4Pr1.1Sr2Ca0.5Cu2O7.9,76.0,Hg0.4 Pr1.1 Sr2 Ca0.5 Cu2 O7.9,"[Element Hg, Element Pr, Element Sr, Element Ca, Element Cu, Element O]","{'Hg': 0.4, 'Pr': 1.1, 'Sr': 2.0, 'Ca': 0.5, 'Cu': 2.0, 'O': 7.9}",Cuprates,6
Hg0.4Pr1.1Sr2Ca0.5Cu2O6.9,60.0,Hg0.4 Pr1.1 Sr2 Ca0.5 Cu2 O6.9,"[Element Hg, Element Pr, Element Sr, Element Ca, Element Cu, Element O]","{'Hg': 0.4, 'Pr': 1.1, 'Sr': 2.0, 'Ca': 0.5, 'Cu': 2.0, 'O': 6.9}",Cuprates,6
Ba6Ge25,0.24,Ba6 Ge25,"[Element Ba, Element Ge]","{'Ba': 6.0, 'Ge': 25.0}",Other,2
Ca1.82Na0.18Cu1Cl2O2,27.0,Ca1.82 Na0.18 Cu1 Cl2 O2,"[Element Ca, Element Na, Element Cu, Element Cl, Element O]","{'Ca': 1.82, 'Na': 0.18, 'Cu': 1.0, 'Cl': 2.0, 'O': 2.0}",Cuprates,5
Ce1Ni1Ge3,0.48,Ce1 Ni1 Ge3,"[Element Ce, Element Ni, Element Ge]","{'Ce': 1.0, 'Ni': 1.0, 'Ge': 3.0}",Other,3
Mg1.9Cu0.1B12,37.3,Mg1.9 Cu0.1 B12,"[Element Mg, Element Cu, Element B]","{'Mg': 1.9, 'Cu': 0.1, 'B': 12.0}",Other,3
Mg1.8Cu0.2B12,36.5,Mg1.8 Cu0.2 B12,"[Element Mg, Element Cu, Element B]","{'Mg': 1.8, 'Cu': 0.2, 'B': 12.0}",Other,3
Ca1.9Cu1Cl2O2,15.0,Ca1.9 Cu1 Cl2 O2,"[Element Ca, Element Cu, Element Cl, Element O]","{'Ca': 1.9, 'Cu': 1.0, 'Cl': 2.0, 'O': 2.0}",Cuprates,4
Ca1.85Cu1Cl2O2,30.0,Ca1.85 Cu1 Cl2 O2,"[Element Ca, Element Cu, Element Cl, Element O]","{'Ca': 1.85, 'Cu': 1.0, 'Cl': 2.0, 'O': 2.0}",Cuprates,4
Ca1.8Cu1Cl2O2,39.0,Ca1.8 Cu1 Cl2 O2,"[Element Ca, Element Cu, Element Cl, Element O]","{'Ca': 1.8, 'Cu': 1.0, 'Cl': 2.0, 'O': 2.0}",Cuprates,4
Mg1B1.95C0.05,34.0,Mg1 B1.95 C0.05,"[Element Mg, Element B, Element C]","{'Mg': 1.0, 'B': 1.95, 'C': 0.05}",Other,3
Mg1B1.9C0.1,27.5,Mg1 B1.9 C0.1,"[Element Mg, Element B, Element C]","{'Mg': 1.0, 'B': 1.9, 'C': 0.1}",Other,3
Lu1Ni1B1C1,2.5,Lu1 Ni1 B1 C1,"[Element Lu, Element Ni, Element B, Element C]","{'Lu': 1.0, 'Ni': 1.0, 'B': 1.0, 'C': 1.0}",Other,4
Lu1Ni1B0.9C1,2.6,Lu1 Ni1 B0.9 C1,"[Element Lu, Element Ni, Element B, Element C]","{'Lu': 1.0, 'Ni': 1.0, 'B': 0.9, 'C': 1.0}",Other,4
Lu1Ni1B0.8C1,2.6,Lu1 Ni1 B0.8 C1,"[Element Lu, Element Ni, Element B, Element C]","{'Lu': 1.0, 'Ni': 1.0, 'B': 0.8, 'C': 1.0}",Other,4
Lu1Ni1B0.9C1.1,2.9,Lu1 Ni1 B0.9 C1.1,"[Element Lu, Element Ni, Element B, Element C]","{'Lu': 1.0, 'Ni': 1.0, 'B': 0.9, 'C': 1.1}",Other,4
Lu1Ni1B0.8C1.2,3.2,Lu1 Ni1 B0.8 C1.2,"[Element Lu, Element Ni, Element B, Element C]","{'Lu': 1.0, 'Ni': 1.0, 'B': 0.8, 'C': 1.2}",Other,4
Lu1Ni1B1.1C0.9,2.4,Lu1 Ni1 B1.1 C0.9,"[Element Lu, Element Ni, Element B, Element C]","{'Lu': 1.0, 'Ni': 1.0, 'B': 1.1, 'C': 0.9}",Other,4
Lu1Ni1B1C0.85,2.4,Lu1 Ni1 B1 C0.85,"[Element Lu, Element Ni, Element B, Element C]","{'Lu': 1.0, 'Ni': 1.0, 'B': 1.0, 'C': 0.85}",Other,4
Lu1Ni1B0.95C0.95,2.5,Lu1 Ni1 B0.95 C0.95,"[Element Lu, Element Ni, Element B, Element C]","{'Lu': 1.0, 'Ni': 1.0, 'B': 0.95, 'C': 0.95}",Other,4
Li1.07Ti1.93O4,10.4,Li1.07 Ti1.93 O4,"[Element Li, Element Ti, Element O]","{'Li': 1.07, 'Ti': 1.93, 'O': 4.0}",Other,3
Na0.34Co1H2.6O3.3,2.65,Na0.34 Co1 H2.6 O3.3,"[Element Na, Element Co, Element H, Element O]","{'Na': 0.34, 'Co': 1.0, 'H': 2.6, 'O': 3.3}",Hydrides,4
Na0.25Co1H2.6O3.3,4.7,Na0.25 Co1 H2.6 O3.3,"[Element Na, Element Co, Element H, Element O]","{'Na': 0.25, 'Co': 1.0, 'H': 2.6, 'O': 3.3}",Hydrides,4
Mo0.16U0.84,2.121,Mo0.16 U0.84,"[Element Mo, Element U]","{'Mo': 0.16, 'U': 0.84}",Other,2
Mo0.2U0.8,2.113,Mo0.2 U0.8,"[Element Mo, Element U]","{'Mo': 0.2, 'U': 0.8}",Other,2
Nb0.18U0.82,2.011,Nb0.18 U0.82,"[Element Nb, Element U]","{'Nb': 0.18, 'U': 0.82}",Other,2
Nb0.2U0.8,2.009,Nb0.2 U0.8,"[Element Nb, Element U]","{'Nb': 0.2, 'U': 0.8}",Other,2
Nb0.22U0.78,2.01,Nb0.22 U0.78,"[Element Nb, Element U]","{'Nb': 0.22, 'U': 0.78}",Other,2
La2C2Br2,7.03,La2 C2 Br2,"[Element La, Element C, Element Br]","{'La': 2.0, 'C': 2.0, 'Br': 2.0}",Other,3
Ba1.34Eu2Ce0.66Cu3O8.96,15.0,Ba1.34 Eu2 Ce0.66 Cu3 O8.96,"[Element Ba, Element Eu, Element Ce, Element Cu, Element O]","{'Ba': 1.34, 'Eu': 2.0, 'Ce': 0.66, 'Cu': 3.0, 'O': 8.96}",Cuprates,5
Ba1.34Eu2Ce0.66Cu3O9.02,25.0,Ba1.34 Eu2 Ce0.66 Cu3 O9.02,"[Element Ba, Element Eu, Element Ce, Element Cu, Element O]","{'Ba': 1.34, 'Eu': 2.0, 'Ce': 0.66, 'Cu': 3.0, 'O': 9.02}",Cuprates,5
V0.5Sr2.25Ca1.75Cu3.5O9.7,98.0,V0.5 Sr2.25 Ca1.75 Cu3.5 O9.7,"[Element V, Element Sr, Element Ca, Element Cu, Element O]","{'V': 0.5, 'Sr': 2.25, 'Ca': 1.75, 'Cu': 3.5, 'O': 9.7}",Cuprates,5
V0.5Sr2.7Ca2.3Cu4.5O11.6,107.0,V0.5 Sr2.7 Ca2.3 Cu4.5 O11.6,"[Element V, Element Sr, Element Ca, Element Cu, Element O]","{'V': 0.5, 'Sr': 2.7, 'Ca': 2.3, 'Cu': 4.5, 'O': 11.6}",Cuprates,5
V0.5Sr2.4Ca3.6Cu5.5O13.55,75.0,V0.5 Sr2.4 Ca3.6 Cu5.5 O13.55,"[Element V, Element Sr, Element Ca, Element Cu, Element O]","{'V': 0.5, 'Sr': 2.4, 'Ca': 3.6, 'Cu': 5.5, 'O': 13.55}",Cuprates,5
V0.5Sr2.3Ca4.7Cu6.5O15.5,75.0,V0.5 Sr2.3 Ca4.7 Cu6.5 O15.5,"[Element V, Element Sr, Element Ca, Element Cu, Element O]","{'V': 0.5, 'Sr': 2.3, 'Ca': 4.7, 'Cu': 6.5, 'O': 15.5}",Cuprates,5
V0.5Sr2.6Ca5.4Cu7.5O17.3,73.0,V0.5 Sr2.6 Ca5.4 Cu7.5 O17.3,"[Element V, Element Sr, Element Ca, Element Cu, Element O]","{'V': 0.5, 'Sr': 2.6, 'Ca': 5.4, 'Cu': 7.5, 'O': 17.3}",Cuprates,5
Ca1Cu0.25Si1.7,3.2,Ca1 Cu0.25 Si1.7,"[Element Ca, Element Cu, Element Si]","{'Ca': 1.0, 'Cu': 0.25, 'Si': 1.7}",Other,3
Ca1Cu0.25Si1.75,3.1,Ca1 Cu0.25 Si1.75,"[Element Ca, Element Cu, Element Si]","{'Ca': 1.0, 'Cu': 0.25, 'Si': 1.75}",Other,3
Ca1Cu0.33Si1.67,2.3,Ca1 Cu0.33 Si1.67,"[Element Ca, Element Cu, Element Si]","{'Ca': 1.0, 'Cu': 0.33, 'Si': 1.67}",Other,3
Ca1Cu0.25Si1.55,2.9,Ca1 Cu0.25 Si1.55,"[Element Ca, Element Cu, Element Si]","{'Ca': 1.0, 'Cu': 0.25, 'Si': 1.55}",Other,3
Ca1Cu0.25Si1.6,3.0,Ca1 Cu0.25 Si1.6,"[Element Ca, Element Cu, Element Si]","{'Ca': 1.0, 'Cu': 0.25, 'Si': 1.6}",Other,3
Pr1Os4Sb12,1.81,Pr1 Os4 Sb12,"[Element Pr, Element Os, Element Sb]","{'Pr': 1.0, 'Os': 4.0, 'Sb': 12.0}",Other,3
Pr0.98La0.02Os4Sb12,1.8,Pr0.98 La0.02 Os4 Sb12,"[Element Pr, Element La, Element Os, Element Sb]","{'Pr': 0.98, 'La': 0.02, 'Os': 4.0, 'Sb': 12.0}",Other,4
Pr0.95La0.05Os4Sb12,1.79,Pr0.95 La0.05 Os4 Sb12,"[Element Pr, Element La, Element Os, Element Sb]","{'Pr': 0.95, 'La': 0.05, 'Os': 4.0, 'Sb': 12.0}",Other,4
Pr0.9La0.1Os4Sb12,1.7,Pr0.9 La0.1 Os4 Sb12,"[Element Pr, Element La, Element Os, Element Sb]","{'Pr': 0.9, 'La': 0.1, 'Os': 4.0, 'Sb': 12.0}",Other,4
Pr0.8La0.2Os4Sb12,1.645,Pr0.8 La0.2 Os4 Sb12,"[Element Pr, Element La, Element Os, Element Sb]","{'Pr': 0.8, 'La': 0.2, 'Os': 4.0, 'Sb': 12.0}",Other,4
Pr0.7La0.3Os4Sb12,1.528,Pr0.7 La0.3 Os4 Sb12,"[Element Pr, Element La, Element Os, Element Sb]","{'Pr': 0.7, 'La': 0.3, 'Os': 4.0, 'Sb': 12.0}",Other,4
Pr0.6La0.4Os4Sb12,1.414,Pr0.6 La0.4 Os4 Sb12,"[Element Pr, Element La, Element Os, Element Sb]","{'Pr': 0.6, 'La': 0.4, 'Os': 4.0, 'Sb': 12.0}",Other,4
Pr0.4La0.6Os4Sb12,1.172,Pr0.4 La0.6 Os4 Sb12,"[Element Pr, Element La, Element Os, Element Sb]","{'Pr': 0.4, 'La': 0.6, 'Os': 4.0, 'Sb': 12.0}",Other,4
Pr0.2La0.8Os4Sb12,0.903,Pr0.2 La0.8 Os4 Sb12,"[Element Pr, Element La, Element Os, Element Sb]","{'Pr': 0.2, 'La': 0.8, 'Os': 4.0, 'Sb': 12.0}",Other,4
La1Os4Sb12,0.741,La1 Os4 Sb12,"[Element La, Element Os, Element Sb]","{'La': 1.0, 'Os': 4.0, 'Sb': 12.0}",Other,3
Be13U1,0.95,Be13 U1,"[Element Be, Element U]","{'Be': 13.0, 'U': 1.0}",Other,2
U0.9911Th0.0089Be13,0.66,U0.9911 Th0.0089 Be13,"[Element U, Element Th, Element Be]","{'U': 0.9911, 'Th': 0.0089, 'Be': 13.0}",Other,3
U0.9981Th0.019Be13,0.573,U0.9981 Th0.019 Be13,"[Element U, Element Th, Element Be]","{'U': 0.9981, 'Th': 0.019, 'Be': 13.0}",Other,3
U0.974Th0.026Be13,0.58,U0.974 Th0.026 Be13,"[Element U, Element Th, Element Be]","{'U': 0.974, 'Th': 0.026, 'Be': 13.0}",Other,3
U0.97Th0.03Be13,0.623,U0.97 Th0.03 Be13,"[Element U, Element Th, Element Be]","{'U': 0.97, 'Th': 0.03, 'Be': 13.0}",Other,3
U0.9622Th0.0378Be13,0.557,U0.9622 Th0.0378 Be13,"[Element U, Element Th, Element Be]","{'U': 0.9622, 'Th': 0.0378, 'Be': 13.0}",Other,3
U0.9397Th0.0603Be13,0.344,U0.9397 Th0.0603 Be13,"[Element U, Element Th, Element Be]","{'U': 0.9397, 'Th': 0.0603, 'Be': 13.0}",Other,3
Sc5Ir4Si10,8.5,Sc5 Ir4 Si10,"[Element Sc, Element Ir, Element Si]","{'Sc': 5.0, 'Ir': 4.0, 'Si': 10.0}",Other,3
Bi1K1,3.6,Bi1 K1,"[Element Bi, Element K]","{'Bi': 1.0, 'K': 1.0}",Other,2
Bi3Ca1,1.7,Bi3 Ca1,"[Element Bi, Element Ca]","{'Bi': 3.0, 'Ca': 1.0}",Other,2
Ba1Bi3,5.69,Ba1 Bi3,"[Element Ba, Element Bi]","{'Ba': 1.0, 'Bi': 3.0}",Other,2
Bi2Rh1,2.2,Bi2 Rh1,"[Element Bi, Element Rh]","{'Bi': 2.0, 'Rh': 1.0}",Other,2
Bi4Rh1,2.75,Bi4 Rh1,"[Element Bi, Element Rh]","{'Bi': 4.0, 'Rh': 1.0}",Other,2
Bi3Ni1,3.6,Bi3 Ni1,"[Element Bi, Element Ni]","{'Bi': 3.0, 'Ni': 1.0}",Other,2
N1V1,7.5,N1 V1,"[Element N, Element V]","{'N': 1.0, 'V': 1.0}",Other,2
C1Mo2,2.78,C1 Mo2,"[Element C, Element Mo]","{'C': 1.0, 'Mo': 2.0}",Other,2
C1W2,2.74,C1 W2,"[Element C, Element W]","{'C': 1.0, 'W': 2.0}",Other,2
B1Mo2,4.74,B1 Mo2,"[Element B, Element Mo]","{'B': 1.0, 'Mo': 2.0}",Other,2
Mo2N1,5.0,Mo2 N1,"[Element Mo, Element N]","{'Mo': 2.0, 'N': 1.0}",Other,2
Mo1N1,12.0,Mo1 N1,"[Element Mo, Element N]","{'Mo': 1.0, 'N': 1.0}",Other,2
Sr0.2Ta1S2,2.8,Sr0.2 Ta1 S2,"[Element Sr, Element Ta, Element S]","{'Sr': 0.2, 'Ta': 1.0, 'S': 2.0}",Other,3
Sr0.2Mo1S2,5.1,Sr0.2 Mo1 S2,"[Element Sr, Element Mo, Element S]","{'Sr': 0.2, 'Mo': 1.0, 'S': 2.0}",Other,3
Sr0.2W1S2,3.5,Sr0.2 W1 S2,"[Element Sr, Element W, Element S]","{'Sr': 0.2, 'W': 1.0, 'S': 2.0}",Other,3
Ca0.2Mo1S2,3.6,Ca0.2 Mo1 S2,"[Element Ca, Element Mo, Element S]","{'Ca': 0.2, 'Mo': 1.0, 'S': 2.0}",Other,3
Ba0.2Mo1S2,5.7,Ba0.2 Mo1 S2,"[Element Ba, Element Mo, Element S]","{'Ba': 0.2, 'Mo': 1.0, 'S': 2.0}",Other,3
Sr0.2Mo1Se2,5.0,Sr0.2 Mo1 Se2,"[Element Sr, Element Mo, Element Se]","{'Sr': 0.2, 'Mo': 1.0, 'Se': 2.0}",Other,3
Sr0.2W1Se2,1.4,Sr0.2 W1 Se2,"[Element Sr, Element W, Element Se]","{'Sr': 0.2, 'W': 1.0, 'Se': 2.0}",Other,3
Pb1.14Ta2S5.14,3.3,Pb1.14 Ta2 S5.14,"[Element Pb, Element Ta, Element S]","{'Pb': 1.14, 'Ta': 2.0, 'S': 5.14}",Other,3
Sb1.16Ta2S5.16,3.0,Sb1.16 Ta2 S5.16,"[Element Sb, Element Ta, Element S]","{'Sb': 1.16, 'Ta': 2.0, 'S': 5.16}",Other,3
Bi1.08Ta2S5.08,2.7,Bi1.08 Ta2 S5.08,"[Element Bi, Element Ta, Element S]","{'Bi': 1.08, 'Ta': 2.0, 'S': 5.08}",Other,3
Na0.6Sn1Ta2S5,4.0,Na0.6 Sn1 Ta2 S5,"[Element Na, Element Sn, Element Ta, Element S]","{'Na': 0.6, 'Sn': 1.0, 'Ta': 2.0, 'S': 5.0}",Other,4
Na0.3Pb1Ta2S5,3.7,Na0.3 Pb1 Ta2 S5,"[Element Na, Element Pb, Element Ta, Element S]","{'Na': 0.3, 'Pb': 1.0, 'Ta': 2.0, 'S': 5.0}",Other,4
Na0.3Sb1Ta2S5,3.5,Na0.3 Sb1 Ta2 S5,"[Element Na, Element Sb, Element Ta, Element S]","{'Na': 0.3, 'Sb': 1.0, 'Ta': 2.0, 'S': 5.0}",Other,4
Ce1Cu2Ge2,2.0,Ce1 Cu2 Ge2,"[Element Ce, Element Cu, Element Ge]","{'Ce': 1.0, 'Cu': 2.0, 'Ge': 2.0}",Other,3
U1Ru2Si2,1.1,U1 Ru2 Si2,"[Element U, Element Ru, Element Si]","{'U': 1.0, 'Ru': 2.0, 'Si': 2.0}",Other,3
Pr0.89La1Ce0.11Cu1O3.98,26.0,Pr0.89 La1 Ce0.11 Cu1 O3.98,"[Element Pr, Element La, Element Ce, Element Cu, Element O]","{'Pr': 0.89, 'La': 1.0, 'Ce': 0.11, 'Cu': 1.0, 'O': 3.98}",Cuprates,5
Pr0.85La1Ce0.15Cu1O3.95,19.0,Pr0.85 La1 Ce0.15 Cu1 O3.95,"[Element Pr, Element La, Element Ce, Element Cu, Element O]","{'Pr': 0.85, 'La': 1.0, 'Ce': 0.15, 'Cu': 1.0, 'O': 3.95}",Cuprates,5
La1Fe4P12,4.1,La1 Fe4 P12,"[Element La, Element Fe, Element P]","{'La': 1.0, 'Fe': 4.0, 'P': 12.0}",Fe-based,3
Mg1C1Ni3,7.1,Mg1 C1 Ni3,"[Element Mg, Element C, Element Ni]","{'Mg': 1.0, 'C': 1.0, 'Ni': 3.0}",Other,3
Mg1C1Ni2.995Ru0.005,6.93,Mg1 C1 Ni2.995 Ru0.005,"[Element Mg, Element C, Element Ni, Element Ru]","{'Mg': 1.0, 'C': 1.0, 'Ni': 2.995, 'Ru': 0.005}",Other,4
Mg1C1Ni2.99Ru0.01,6.71,Mg1 C1 Ni2.99 Ru0.01,"[Element Mg, Element C, Element Ni, Element Ru]","{'Mg': 1.0, 'C': 1.0, 'Ni': 2.99, 'Ru': 0.01}",Other,4
Mg1C1Ni2.98Ru0.02,6.52,Mg1 C1 Ni2.98 Ru0.02,"[Element Mg, Element C, Element Ni, Element Ru]","{'Mg': 1.0, 'C': 1.0, 'Ni': 2.98, 'Ru': 0.02}",Other,4
Mg1C1Ni2.967Ru0.033,6.1,Mg1 C1 Ni2.967 Ru0.033,"[Element Mg, Element C, Element Ni, Element Ru]","{'Mg': 1.0, 'C': 1.0, 'Ni': 2.967, 'Ru': 0.033}",Other,4
Mg1C1Ni2.934Ru0.066,5.6,Mg1 C1 Ni2.934 Ru0.066,"[Element Mg, Element C, Element Ni, Element Ru]","{'Mg': 1.0, 'C': 1.0, 'Ni': 2.934, 'Ru': 0.066}",Other,4
Mg1C1Ni2.9Ru0.1,4.72,Mg1 C1 Ni2.9 Ru0.1,"[Element Mg, Element C, Element Ni, Element Ru]","{'Mg': 1.0, 'C': 1.0, 'Ni': 2.9, 'Ru': 0.1}",Other,4
Mg1C1Ni2.8Ru0.2,3.47,Mg1 C1 Ni2.8 Ru0.2,"[Element Mg, Element C, Element Ni, Element Ru]","{'Mg': 1.0, 'C': 1.0, 'Ni': 2.8, 'Ru': 0.2}",Other,4
Mg1C1Ni2.999Fe0.001,6.93,Mg1 C1 Ni2.999 Fe0.001,"[Element Mg, Element C, Element Ni, Element Fe]","{'Mg': 1.0, 'C': 1.0, 'Ni': 2.999, 'Fe': 0.001}",Fe-based,4
Mg1C1Ni2.995Fe0.005,6.44,Mg1 C1 Ni2.995 Fe0.005,"[Element Mg, Element C, Element Ni, Element Fe]","{'Mg': 1.0, 'C': 1.0, 'Ni': 2.995, 'Fe': 0.005}",Fe-based,4
Mg1C1Ni2.99Fe0.01,6.25,Mg1 C1 Ni2.99 Fe0.01,"[Element Mg, Element C, Element Ni, Element Fe]","{'Mg': 1.0, 'C': 1.0, 'Ni': 2.99, 'Fe': 0.01}",Fe-based,4
Mg1C1Ni2.985Fe0.015,5.96,Mg1 C1 Ni2.985 Fe0.015,"[Element Mg, Element C, Element Ni, Element Fe]","{'Mg': 1.0, 'C': 1.0, 'Ni': 2.985, 'Fe': 0.015}",Fe-based,4
Mg1C1Ni2.98Fe0.02,5.46,Mg1 C1 Ni2.98 Fe0.02,"[Element Mg, Element C, Element Ni, Element Fe]","{'Mg': 1.0, 'C': 1.0, 'Ni': 2.98, 'Fe': 0.02}",Fe-based,4
Mg1C1Ni2.975Fe0.025,5.17,Mg1 C1 Ni2.975 Fe0.025,"[Element Mg, Element C, Element Ni, Element Fe]","{'Mg': 1.0, 'C': 1.0, 'Ni': 2.975, 'Fe': 0.025}",Fe-based,4
Mg1C1Ni2.967Fe0.033,4.9,Mg1 C1 Ni2.967 Fe0.033,"[Element Mg, Element C, Element Ni, Element Fe]","{'Mg': 1.0, 'C': 1.0, 'Ni': 2.967, 'Fe': 0.033}",Fe-based,4
Mg1C1Ni2.95Fe0.05,3.72,Mg1 C1 Ni2.95 Fe0.05,"[Element Mg, Element C, Element Ni, Element Fe]","{'Mg': 1.0, 'C': 1.0, 'Ni': 2.95, 'Fe': 0.05}",Fe-based,4
Mg0.99Pb0.01B2,35.9,Mg0.99 Pb0.01 B2,"[Element Mg, Element Pb, Element B]","{'Mg': 0.99, 'Pb': 0.01, 'B': 2.0}",Other,3
Mg0.98Pb0.02B2,35.5,Mg0.98 Pb0.02 B2,"[Element Mg, Element Pb, Element B]","{'Mg': 0.98, 'Pb': 0.02, 'B': 2.0}",Other,3
Mg0.94Pb0.06B2,35.0,Mg0.94 Pb0.06 B2,"[Element Mg, Element Pb, Element B]","{'Mg': 0.94, 'Pb': 0.06, 'B': 2.0}",Other,3
Mg0.9Pb0.1B2,34.0,Mg0.9 Pb0.1 B2,"[Element Mg, Element Pb, Element B]","{'Mg': 0.9, 'Pb': 0.1, 'B': 2.0}",Other,3
La1.77Sr0.23Cu0.94Mn0.06O4,34.0,La1.77 Sr0.23 Cu0.94 Mn0.06 O4,"[Element La, Element Sr, Element Cu, Element Mn, Element O]","{'La': 1.77, 'Sr': 0.23, 'Cu': 0.94, 'Mn': 0.06, 'O': 4.0}",Cuprates,5
Tl0.5Pb0.5Sr2Ca1Cu2.98Co0.02O7,65.0,Tl0.5 Pb0.5 Sr2 Ca1 Cu2.98 Co0.02 O7,"[Element Tl, Element Pb, Element Sr, Element Ca, Element Cu, Element Co, Element O]","{'Tl': 0.5, 'Pb': 0.5, 'Sr': 2.0, 'Ca': 1.0, 'Cu': 2.98, 'Co': 0.02, 'O': 7.0}",Cuprates,7
Tl0.5Pb0.5Sr2Ca1Cu2.95Co0.05O7,53.0,Tl0.5 Pb0.5 Sr2 Ca1 Cu2.95 Co0.05 O7,"[Element Tl, Element Pb, Element Sr, Element Ca, Element Cu, Element Co, Element O]","{'Tl': 0.5, 'Pb': 0.5, 'Sr': 2.0, 'Ca': 1.0, 'Cu': 2.95, 'Co': 0.05, 'O': 7.0}",Cuprates,7
Tl0.5Pb0.5Sr2Ca1Cu2.98Ni0.02O7,63.5,Tl0.5 Pb0.5 Sr2 Ca1 Cu2.98 Ni0.02 O7,"[Element Tl, Element Pb, Element Sr, Element Ca, Element Cu, Element Ni, Element O]","{'Tl': 0.5, 'Pb': 0.5, 'Sr': 2.0, 'Ca': 1.0, 'Cu': 2.98, 'Ni': 0.02, 'O': 7.0}",Cuprates,7
Tl0.5Pb0.5Sr2Ca1Cu2.95Ni0.05O7,50.0,Tl0.5 Pb0.5 Sr2 Ca1 Cu2.95 Ni0.05 O7,"[Element Tl, Element Pb, Element Sr, Element Ca, Element Cu, Element Ni, Element O]","{'Tl': 0.5, 'Pb': 0.5, 'Sr': 2.0, 'Ca': 1.0, 'Cu': 2.95, 'Ni': 0.05, 'O': 7.0}",Cuprates,7
Sn1.17Nb1S3.17,2.75,Sn1.17 Nb1 S3.17,"[Element Sn, Element Nb, Element S]","{'Sn': 1.17, 'Nb': 1.0, 'S': 3.17}",Other,3
Pb1.14Nb1S3.14,2.72,Pb1.14 Nb1 S3.14,"[Element Pb, Element Nb, Element S]","{'Pb': 1.14, 'Nb': 1.0, 'S': 3.14}",Other,3
Sn1.15Ta1S3.15,2.85,Sn1.15 Ta1 S3.15,"[Element Sn, Element Ta, Element S]","{'Sn': 1.15, 'Ta': 1.0, 'S': 3.15}",Other,3
Pb1.13Ta1S3.13,3.08,Pb1.13 Ta1 S3.13,"[Element Pb, Element Ta, Element S]","{'Pb': 1.13, 'Ta': 1.0, 'S': 3.13}",Other,3
Bi1.08Ta1S3.08,0.76,Bi1.08 Ta1 S3.08,"[Element Bi, Element Ta, Element S]","{'Bi': 1.08, 'Ta': 1.0, 'S': 3.08}",Other,3
Mg1B1.89C0.11,34.7,Mg1 B1.89 C0.11,"[Element Mg, Element B, Element C]","{'Mg': 1.0, 'B': 1.89, 'C': 0.11}",Other,3
Mg1B1.834C0.166,32.0,Mg1 B1.834 C0.166,"[Element Mg, Element B, Element C]","{'Mg': 1.0, 'B': 1.834, 'C': 0.166}",Other,3
Mg1B1.8C0.2,28.8,Mg1 B1.8 C0.2,"[Element Mg, Element B, Element C]","{'Mg': 1.0, 'B': 1.8, 'C': 0.2}",Other,3
Mg1B1.736C0.264,17.6,Mg1 B1.736 C0.264,"[Element Mg, Element B, Element C]","{'Mg': 1.0, 'B': 1.736, 'C': 0.264}",Other,3
Mg0.98Al0.02B2,35.9,Mg0.98 Al0.02 B2,"[Element Mg, Element Al, Element B]","{'Mg': 0.98, 'Al': 0.02, 'B': 2.0}",Other,3
Mg0.92Al0.08B2,31.6,Mg0.92 Al0.08 B2,"[Element Mg, Element Al, Element B]","{'Mg': 0.92, 'Al': 0.08, 'B': 2.0}",Other,3
Mg0.82Al0.18B2,25.7,Mg0.82 Al0.18 B2,"[Element Mg, Element Al, Element B]","{'Mg': 0.82, 'Al': 0.18, 'B': 2.0}",Other,3
Mg0.79Al0.21B2,27.1,Mg0.79 Al0.21 B2,"[Element Mg, Element Al, Element B]","{'Mg': 0.79, 'Al': 0.21, 'B': 2.0}",Other,3
U1Ni2Al3,1.1,U1 Ni2 Al3,"[Element U, Element Ni, Element Al]","{'U': 1.0, 'Ni': 2.0, 'Al': 3.0}",Other,3
La1Rh1Bi1,2.36,La1 Rh1 Bi1,"[Element La, Element Rh, Element Bi]","{'La': 1.0, 'Rh': 1.0, 'Bi': 1.0}",Other,3
Fe1U6,3.95,Fe1 U6,"[Element Fe, Element U]","{'Fe': 1.0, 'U': 6.0}",Fe-based,2
Tl0.5Ba2Ca1.3Be0.7Cu3.5O7.886,95.0,Tl0.5 Ba2 Ca1.3 Be0.7 Cu3.5 O7.886,"[Element Tl, Element Ba, Element Ca, Element Be, Element Cu, Element O]","{'Tl': 0.5, 'Ba': 2.0, 'Ca': 1.3, 'Be': 0.7, 'Cu': 3.5, 'O': 7.886}",Cuprates,6
Tl0.5Ba2Ca0.3Be1.7Cu3.5O7.685,115.0,Tl0.5 Ba2 Ca0.3 Be1.7 Cu3.5 O7.685,"[Element Tl, Element Ba, Element Ca, Element Be, Element Cu, Element O]","{'Tl': 0.5, 'Ba': 2.0, 'Ca': 0.3, 'Be': 1.7, 'Cu': 3.5, 'O': 7.685}",Cuprates,6
Tl0.5Ba2Ca1.5Be1.5Cu4.5O9.887,115.0,Tl0.5 Ba2 Ca1.5 Be1.5 Cu4.5 O9.887,"[Element Tl, Element Ba, Element Ca, Element Be, Element Cu, Element O]","{'Tl': 0.5, 'Ba': 2.0, 'Ca': 1.5, 'Be': 1.5, 'Cu': 4.5, 'O': 9.887}",Cuprates,6
Tl0.5Ba2Ca1Be2Cu4.5O9.948,110.0,Tl0.5 Ba2 Ca1 Be2 Cu4.5 O9.948,"[Element Tl, Element Ba, Element Ca, Element Be, Element Cu, Element O]","{'Tl': 0.5, 'Ba': 2.0, 'Ca': 1.0, 'Be': 2.0, 'Cu': 4.5, 'O': 9.948}",Cuprates,6
Pr1.85Ce0.15Cu0.99V0.01O3.98,22.0,Pr1.85 Ce0.15 Cu0.99 V0.01 O3.98,"[Element Pr, Element Ce, Element Cu, Element V, Element O]","{'Pr': 1.85, 'Ce': 0.15, 'Cu': 0.99, 'V': 0.01, 'O': 3.98}",Cuprates,5
Pr1.85Ce0.15Cu0.98V0.02O3.98,22.3,Pr1.85 Ce0.15 Cu0.98 V0.02 O3.98,"[Element Pr, Element Ce, Element Cu, Element V, Element O]","{'Pr': 1.85, 'Ce': 0.15, 'Cu': 0.98, 'V': 0.02, 'O': 3.98}",Cuprates,5