chemical_formula,Tc,composition,elements,stoichiometry,Category,num_elements
Bi2Sr1.8Li0.2Ca1Cu2O8,77.0,Bi2 Sr1.8 Li0.2 Ca1 Cu2 O8,"[Element Bi, Element Sr, Element Li, Element Ca, Element Cu, Element O]","{'Bi': 2.0, 'Sr': 1.8, 'Li': 0.2, 'Ca': 1.0, 'Cu': 2.0, 'O': 8.0}",Cuprates,6
Bi2Sr1.6Li0.4Ca1Cu2O7.87,86.0,Bi2 Sr1.6 Li0.4 Ca1 Cu2 O7.87,"[Element Bi, Element Sr, Element Li, Element Ca, Element Cu, Element O]","{'Bi': 2.0, 'Sr': 1.6, 'Li': 0.4, 'Ca': 1.0, 'Cu': 2.0, 'O': 7.87}",Cuprates,6
Bi2Sr1.4Li0.6Ca1Cu2O7.7,94.0,Bi2 Sr1.4 Li0.6 Ca1 Cu2 O7.7,"[Element Bi, Element Sr, Element Li, Element Ca, Element Cu, Element O]","{'Bi': 2.0, 'Sr': 1.4, 'Li': 0.6, 'Ca': 1.0, 'Cu': 2.0, 'O': 7.7}",Cuprates,6
Bi1.4Pb0.6Sr2Ca2Cu3O7,108.5,Bi1.4 Pb0.6 Sr2 Ca2 Cu3 O7,"[Element Bi, Element Pb, Element Sr, Element Ca, Element Cu, Element O]","{'Bi': 1.4, 'Pb': 0.6, 'Sr': 2.0, 'Ca': 2.0, 'Cu': 3.0, 'O': 7.0}",Cuprates,6
Bi1.4Pb0.6Sr2Ca1.9Ga0.1Cu3O7,104.4,Bi1.4 Pb0.6 Sr2 Ca1.9 Ga0.1 Cu3 O7,"[Element Bi, Element Pb, Element Sr, Element Ca, Element Ga, Element Cu, Element O]","{'Bi': 1.4, 'Pb': 0.6, 'Sr': 2.0, 'Ca': 1.9, 'Ga': 0.1, 'Cu': 3.0, 'O': 7.0}",Cuprates,7
Bi1.4Pb0.6Sr2Ca1.8Ga0.2Cu3O7,68.2,Bi1.4 Pb0.6 Sr2 Ca1.8 Ga0.2 Cu3 O7,"[Element Bi, Element Pb, Element Sr, Element Ca, Element Ga, Element Cu, Element O]","{'Bi': 1.4, 'Pb': 0.6, 'Sr': 2.0, 'Ca': 1.8, 'Ga': 0.2, 'Cu': 3.0, 'O': 7.0}",Cuprates,7
Bi1.4Pb0.6Sr2Ca1.7Ga0.3Cu3O7,67.4,Bi1.4 Pb0.6 Sr2 Ca1.7 Ga0.3 Cu3 O7,"[Element Bi, Element Pb, Element Sr, Element Ca, Element Ga, Element Cu, Element O]","{'Bi': 1.4, 'Pb': 0.6, 'Sr': 2.0, 'Ca': 1.7, 'Ga': 0.3, 'Cu': 3.0, 'O': 7.0}",Cuprates,7
Bi1.4Pb0.6Sr2Ca1.6Ga0.4Cu3O7,69.4,Bi1.4 Pb0.6 Sr2 Ca1.6 Ga0.4 Cu3 O7,"[Element Bi, Element Pb, Element Sr, Element Ca, Element Ga, Element Cu, Element O]","{'Bi': 1.4, 'Pb': 0.6, 'Sr': 2.0, 'Ca': 1.6, 'Ga': 0.4, 'Cu': 3.0, 'O': 7.0}",Cuprates,7
Bi1.4Pb0.6Sr2Ca1.4Ga0.6Cu3O7,70.6,Bi1.4 Pb0.6 Sr2 Ca1.4 Ga0.6 Cu3 O7,"[Element Bi, Element Pb, Element Sr, Element Ca, Element Ga, Element Cu, Element O]","{'Bi': 1.4, 'Pb': 0.6, 'Sr': 2.0, 'Ca': 1.4, 'Ga': 0.6, 'Cu': 3.0, 'O': 7.0}",Cuprates,7
Bi1.4Pb0.6Sr2Ca1.2Ga0.8Cu3O7,67.7,Bi1.4 Pb0.6 Sr2 Ca1.2 Ga0.8 Cu3 O7,"[Element Bi, Element Pb, Element Sr, Element Ca, Element Ga, Element Cu, Element O]","{'Bi': 1.4, 'Pb': 0.6, 'Sr': 2.0, 'Ca': 1.2, 'Ga': 0.8, 'Cu': 3.0, 'O': 7.0}",Cuprates,7
Bi1.4Pb0.6Sr2Ca1Ga1Cu3O7,66.5,Bi1.4 Pb0.6 Sr2 Ca1 Ga1 Cu3 O7,"[Element Bi, Element Pb, Element Sr, Element Ca, Element Ga, Element Cu, Element O]","{'Bi': 1.4, 'Pb': 0.6, 'Sr': 2.0, 'Ca': 1.0, 'Ga': 1.0, 'Cu': 3.0, 'O': 7.0}",Cuprates,7
Bi1.4Pb0.6Sr2Ga2Cu3O7,62.7,Bi1.4 Pb0.6 Sr2 Ga2 Cu3 O7,"[Element Bi, Element Pb, Element Sr, Element Ga, Element Cu, Element O]","{'Bi': 1.4, 'Pb': 0.6, 'Sr': 2.0, 'Ga': 2.0, 'Cu': 3.0, 'O': 7.0}",Cuprates,6
La1.875Ba0.125Cu1O4,4.4,La1.875 Ba0.125 Cu1 O4,"[Element La, Element Ba, Element Cu, Element O]","{'La': 1.875, 'Ba': 0.125, 'Cu': 1.0, 'O': 4.0}",Cuprates,4
La1.875Ba0.1Sr0.025Cu1O4,6.0,La1.875 Ba0.1 Sr0.025 Cu1 O4,"[Element La, Element Ba, Element Sr, Element Cu, Element O]","{'La': 1.875, 'Ba': 0.1, 'Sr': 0.025, 'Cu': 1.0, 'O': 4.0}",Cuprates,5
La1.875Ba0.075Sr0.05Cu1O4,8.0,La1.875 Ba0.075 Sr0.05 Cu1 O4,"[Element La, Element Ba, Element Sr, Element Cu, Element O]","{'La': 1.875, 'Ba': 0.075, 'Sr': 0.05, 'Cu': 1.0, 'O': 4.0}",Cuprates,5
La1.875Ba0.05Sr0.075Cu1O4,17.0,La1.875 Ba0.05 Sr0.075 Cu1 O4,"[Element La, Element Ba, Element Sr, Element Cu, Element O]","{'La': 1.875, 'Ba': 0.05, 'Sr': 0.075, 'Cu': 1.0, 'O': 4.0}",Cuprates,5
La1.875Ba0.025Sr0.1Cu1O4,29.1,La1.875 Ba0.025 Sr0.1 Cu1 O4,"[Element La, Element Ba, Element Sr, Element Cu, Element O]","{'La': 1.875, 'Ba': 0.025, 'Sr': 0.1, 'Cu': 1.0, 'O': 4.0}",Cuprates,5
La1.875Sr0.125Cu1O4,30.0,La1.875 Sr0.125 Cu1 O4,"[Element La, Element Sr, Element Cu, Element O]","{'La': 1.875, 'Sr': 0.125, 'Cu': 1.0, 'O': 4.0}",Cuprates,4
C60Rb3,29.8,C60 Rb3,"[Element C, Element Rb]","{'C': 60.0, 'Rb': 3.0}",Other,2
C60K3,12.8,C60 K3,"[Element C, Element K]","{'C': 60.0, 'K': 3.0}",Other,2
Cs3C60,29.5,Cs3 C60,"[Element Cs, Element C]","{'Cs': 3.0, 'C': 60.0}",Other,2
Cs2Rb1C60,33.0,Cs2 Rb1 C60,"[Element Cs, Element Rb, Element C]","{'Cs': 2.0, 'Rb': 1.0, 'C': 60.0}",Other,3
Cs1Rb2C60,31.0,Cs1 Rb2 C60,"[Element Cs, Element Rb, Element C]","{'Cs': 1.0, 'Rb': 2.0, 'C': 60.0}",Other,3
C60Rb2,29.0,C60 Rb2,"[Element C, Element Rb]","{'C': 60.0, 'Rb': 2.0}",Other,2
C60Rb4,29.0,C60 Rb4,"[Element C, Element Rb]","{'C': 60.0, 'Rb': 4.0}",Other,2
La1.87Sr0.125Cu1.07O4,26.4,La1.87 Sr0.125 Cu1.07 O4,"[Element La, Element Sr, Element Cu, Element O]","{'La': 1.87, 'Sr': 0.125, 'Cu': 1.07, 'O': 4.0}",Cuprates,4
La1.88Sr0.125Cu0.97O4,28.4,La1.88 Sr0.125 Cu0.97 O4,"[Element La, Element Sr, Element Cu, Element O]","{'La': 1.88, 'Sr': 0.125, 'Cu': 0.97, 'O': 4.0}",Cuprates,4
Bi2Sr2Ca0.8Pr0.2Cu2O8,73.0,Bi2 Sr2 Ca0.8 Pr0.2 Cu2 O8,"[Element Bi, Element Sr, Element Ca, Element Pr, Element Cu, Element O]","{'Bi': 2.0, 'Sr': 2.0, 'Ca': 0.8, 'Pr': 0.2, 'Cu': 2.0, 'O': 8.0}",Cuprates,6
Bi2Sr2Ca0.7Pr0.3Cu2O8,61.0,Bi2 Sr2 Ca0.7 Pr0.3 Cu2 O8,"[Element Bi, Element Sr, Element Ca, Element Pr, Element Cu, Element O]","{'Bi': 2.0, 'Sr': 2.0, 'Ca': 0.7, 'Pr': 0.3, 'Cu': 2.0, 'O': 8.0}",Cuprates,6
Bi2Sr2Ca0.6Pr0.4Cu2O8,41.0,Bi2 Sr2 Ca0.6 Pr0.4 Cu2 O8,"[Element Bi, Element Sr, Element Ca, Element Pr, Element Cu, Element O]","{'Bi': 2.0, 'Sr': 2.0, 'Ca': 0.6, 'Pr': 0.4, 'Cu': 2.0, 'O': 8.0}",Cuprates,6
Bi2Sr1.8Ca1.2Cu2O8,68.4,Bi2 Sr1.8 Ca1.2 Cu2 O8,"[Element Bi, Element Sr, Element Ca, Element Cu, Element O]","{'Bi': 2.0, 'Sr': 1.8, 'Ca': 1.2, 'Cu': 2.0, 'O': 8.0}",Cuprates,5
Bi1.8Ga0.2Sr1.8Ca1.2Cu2O8,56.5,Bi1.8 Ga0.2 Sr1.8 Ca1.2 Cu2 O8,"[Element Bi, Element Ga, Element Sr, Element Ca, Element Cu, Element O]","{'Bi': 1.8, 'Ga': 0.2, 'Sr': 1.8, 'Ca': 1.2, 'Cu': 2.0, 'O': 8.0}",Cuprates,6
Bi1.5Ga0.5Sr1.8Ca1.2Cu2O8,41.0,Bi1.5 Ga0.5 Sr1.8 Ca1.2 Cu2 O8,"[Element Bi, Element Ga, Element Sr, Element Ca, Element Cu, Element O]","{'Bi': 1.5, 'Ga': 0.5, 'Sr': 1.8, 'Ca': 1.2, 'Cu': 2.0, 'O': 8.0}",Cuprates,6
Bi1Ga1Sr1.8Ca1.2Cu2O8,24.8,Bi1 Ga1 Sr1.8 Ca1.2 Cu2 O8,"[Element Bi, Element Ga, Element Sr, Element Ca, Element Cu, Element O]","{'Bi': 1.0, 'Ga': 1.0, 'Sr': 1.8, 'Ca': 1.2, 'Cu': 2.0, 'O': 8.0}",Cuprates,6
Pb2Sr2Eu1Cu3O8,71.0,Pb2 Sr2 Eu1 Cu3 O8,"[Element Pb, Element Sr, Element Eu, Element Cu, Element O]","{'Pb': 2.0, 'Sr': 2.0, 'Eu': 1.0, 'Cu': 3.0, 'O': 8.0}",Cuprates,5
Tl2Ba2Ca2Cu3O9.83,114.0,Tl2 Ba2 Ca2 Cu3 O9.83,"[Element Tl, Element Ba, Element Ca, Element Cu, Element O]","{'Tl': 2.0, 'Ba': 2.0, 'Ca': 2.0, 'Cu': 3.0, 'O': 9.83}",Cuprates,5
Tl1.8Ba2Ca2.2Cu3O9.92,112.0,Tl1.8 Ba2 Ca2.2 Cu3 O9.92,"[Element Tl, Element Ba, Element Ca, Element Cu, Element O]","{'Tl': 1.8, 'Ba': 2.0, 'Ca': 2.2, 'Cu': 3.0, 'O': 9.92}",Cuprates,5
Tl1.7Ba2Ca2.3Cu3O9.82,116.0,Tl1.7 Ba2 Ca2.3 Cu3 O9.82,"[Element Tl, Element Ba, Element Ca, Element Cu, Element O]","{'Tl': 1.7, 'Ba': 2.0, 'Ca': 2.3, 'Cu': 3.0, 'O': 9.82}",Cuprates,5
Tl1.6Ba2Ca2.4Cu3O9.67,118.0,Tl1.6 Ba2 Ca2.4 Cu3 O9.67,"[Element Tl, Element Ba, Element Ca, Element Cu, Element O]","{'Tl': 1.6, 'Ba': 2.0, 'Ca': 2.4, 'Cu': 3.0, 'O': 9.67}",Cuprates,5
Tl1.4Ba2Ca2.6Cu3O9.53,118.0,Tl1.4 Ba2 Ca2.6 Cu3 O9.53,"[Element Tl, Element Ba, Element Ca, Element Cu, Element O]","{'Tl': 1.4, 'Ba': 2.0, 'Ca': 2.6, 'Cu': 3.0, 'O': 9.53}",Cuprates,5
Pb0.5Sr2Ca0.5Sm0.5Cu2.5O7,62.0,Pb0.5 Sr2 Ca0.5 Sm0.5 Cu2.5 O7,"[Element Pb, Element Sr, Element Ca, Element Sm, Element Cu, Element O]","{'Pb': 0.5, 'Sr': 2.0, 'Ca': 0.5, 'Sm': 0.5, 'Cu': 2.5, 'O': 7.0}",Cuprates,6
Pb0.5Sr2Ca0.5Eu0.5Cu2.5O7,60.0,Pb0.5 Sr2 Ca0.5 Eu0.5 Cu2.5 O7,"[Element Pb, Element Sr, Element Ca, Element Eu, Element Cu, Element O]","{'Pb': 0.5, 'Sr': 2.0, 'Ca': 0.5, 'Eu': 0.5, 'Cu': 2.5, 'O': 7.0}",Cuprates,6
Pb0.5Sr2Ca0.5Ho0.5Cu2.5O7,67.9,Pb0.5 Sr2 Ca0.5 Ho0.5 Cu2.5 O7,"[Element Pb, Element Sr, Element Ca, Element Ho, Element Cu, Element O]","{'Pb': 0.5, 'Sr': 2.0, 'Ca': 0.5, 'Ho': 0.5, 'Cu': 2.5, 'O': 7.0}",Cuprates,6
Pb0.5Sr2Ca0.5Er0.5Cu2.5O7,70.0,Pb0.5 Sr2 Ca0.5 Er0.5 Cu2.5 O7,"[Element Pb, Element Sr, Element Ca, Element Er, Element Cu, Element O]","{'Pb': 0.5, 'Sr': 2.0, 'Ca': 0.5, 'Er': 0.5, 'Cu': 2.5, 'O': 7.0}",Cuprates,6
Pb0.5Sr2Ca0.5Tm0.5Cu2.5O7,72.0,Pb0.5 Sr2 Ca0.5 Tm0.5 Cu2.5 O7,"[Element Pb, Element Sr, Element Ca, Element Tm, Element Cu, Element O]","{'Pb': 0.5, 'Sr': 2.0, 'Ca': 0.5, 'Tm': 0.5, 'Cu': 2.5, 'O': 7.0}",Cuprates,6
La1.88Sr0.12Cu1O4,31.0,La1.88 Sr0.12 Cu1 O4,"[Element La, Element Sr, Element Cu, Element O]","{'La': 1.88, 'Sr': 0.12, 'Cu': 1.0, 'O': 4.0}",Cuprates,4
Bi2Sr2Ca1Cu2O8.28,76.0,Bi2 Sr2 Ca1 Cu2 O8.28,"[Element Bi, Element Sr, Element Ca, Element Cu, Element O]","{'Bi': 2.0, 'Sr': 2.0, 'Ca': 1.0, 'Cu': 2.0, 'O': 8.28}",Cuprates,5
Bi2Sr2Ca1Cu2O8.15,87.0,Bi2 Sr2 Ca1 Cu2 O8.15,"[Element Bi, Element Sr, Element Ca, Element Cu, Element O]","{'Bi': 2.0, 'Sr': 2.0, 'Ca': 1.0, 'Cu': 2.0, 'O': 8.15}",Cuprates,5
Ba0.6K0.4Bi0.9Pb0.1O3,21.5,Ba0.6 K0.4 Bi0.9 Pb0.1 O3,"[Element Ba, Element K, Element Bi, Element Pb, Element O]","{'Ba': 0.6, 'K': 0.4, 'Bi': 0.9, 'Pb': 0.1, 'O': 3.0}",Other,5
Ba0.6K0.4Bi0.8Pb0.2O3,14.7,Ba0.6 K0.4 Bi0.8 Pb0.2 O3,"[Element Ba, Element K, Element Bi, Element Pb, Element O]","{'Ba': 0.6, 'K': 0.4, 'Bi': 0.8, 'Pb': 0.2, 'O': 3.0}",Other,5
Ba0.7K0.3Bi0.7Pb0.3O3,14.6,Ba0.7 K0.3 Bi0.7 Pb0.3 O3,"[Element Ba, Element K, Element Bi, Element Pb, Element O]","{'Ba': 0.7, 'K': 0.3, 'Bi': 0.7, 'Pb': 0.3, 'O': 3.0}",Other,5
Ba0.6K0.4Bi0.7Pb0.3O3,11.3,Ba0.6 K0.4 Bi0.7 Pb0.3 O3,"[Element Ba, Element K, Element Bi, Element Pb, Element O]","{'Ba': 0.6, 'K': 0.4, 'Bi': 0.7, 'Pb': 0.3, 'O': 3.0}",Other,5
Ba0.9K0.1Bi0.4Pb0.6O3,11.3,Ba0.9 K0.1 Bi0.4 Pb0.6 O3,"[Element Ba, Element K, Element Bi, Element Pb, Element O]","{'Ba': 0.9, 'K': 0.1, 'Bi': 0.4, 'Pb': 0.6, 'O': 3.0}",Other,5
Ba0.6K0.4Bi0.6Pb0.4O3,9.2,Ba0.6 K0.4 Bi0.6 Pb0.4 O3,"[Element Ba, Element K, Element Bi, Element Pb, Element O]","{'Ba': 0.6, 'K': 0.4, 'Bi': 0.6, 'Pb': 0.4, 'O': 3.0}",Other,5
Ba0.9K0.1Bi0.3Pb0.7O3,9.3,Ba0.9 K0.1 Bi0.3 Pb0.7 O3,"[Element Ba, Element K, Element Bi, Element Pb, Element O]","{'Ba': 0.9, 'K': 0.1, 'Bi': 0.3, 'Pb': 0.7, 'O': 3.0}",Other,5
Ba0.6K0.4Bi0.5Pb0.5O3,7.2,Ba0.6 K0.4 Bi0.5 Pb0.5 O3,"[Element Ba, Element K, Element Bi, Element Pb, Element O]","{'Ba': 0.6, 'K': 0.4, 'Bi': 0.5, 'Pb': 0.5, 'O': 3.0}",Other,5
Ba0.8K0.2Bi0.3Pb0.7O3,7.2,Ba0.8 K0.2 Bi0.3 Pb0.7 O3,"[Element Ba, Element K, Element Bi, Element Pb, Element O]","{'Ba': 0.8, 'K': 0.2, 'Bi': 0.3, 'Pb': 0.7, 'O': 3.0}",Other,5
Tl0.76Ba1Cu1O4.5,86.0,Tl0.76 Ba1 Cu1 O4.5,"[Element Tl, Element Ba, Element Cu, Element O]","{'Tl': 0.76, 'Ba': 1.0, 'Cu': 1.0, 'O': 4.5}",Cuprates,4
Hg0.76Tl0.76Ba1Cu1O4.5,87.5,Hg0.76 Tl0.76 Ba1 Cu1 O4.5,"[Element Hg, Element Tl, Element Ba, Element Cu, Element O]","{'Hg': 0.76, 'Tl': 0.76, 'Ba': 1.0, 'Cu': 1.0, 'O': 4.5}",Cuprates,5
Eu1Ba2Cu3O6.97,94.77,Eu1 Ba2 Cu3 O6.97,"[Element Eu, Element Ba, Element Cu, Element O]","{'Eu': 1.0, 'Ba': 2.0, 'Cu': 3.0, 'O': 6.97}",Cuprates,4
Eu0.9Pr0.1Ba2Cu3O6.95,79.45,Eu0.9 Pr0.1 Ba2 Cu3 O6.95,"[Element Eu, Element Pr, Element Ba, Element Cu, Element O]","{'Eu': 0.9, 'Pr': 0.1, 'Ba': 2.0, 'Cu': 3.0, 'O': 6.95}",Cuprates,5
Eu0.8Pr0.2Ba2Cu3O6.97,57.9,Eu0.8 Pr0.2 Ba2 Cu3 O6.97,"[Element Eu, Element Pr, Element Ba, Element Cu, Element O]","{'Eu': 0.8, 'Pr': 0.2, 'Ba': 2.0, 'Cu': 3.0, 'O': 6.97}",Cuprates,5
Eu0.7Pr0.3Ba2Cu3O6.95,38.8,Eu0.7 Pr0.3 Ba2 Cu3 O6.95,"[Element Eu, Element Pr, Element Ba, Element Cu, Element O]","{'Eu': 0.7, 'Pr': 0.3, 'Ba': 2.0, 'Cu': 3.0, 'O': 6.95}",Cuprates,5
Eu0.6Pr0.4Ba2Cu3O6.97,15.0,Eu0.6 Pr0.4 Ba2 Cu3 O6.97,"[Element Eu, Element Pr, Element Ba, Element Cu, Element O]","{'Eu': 0.6, 'Pr': 0.4, 'Ba': 2.0, 'Cu': 3.0, 'O': 6.97}",Cuprates,5
Sm1Ba2Cu3O6.95,90.0,Sm1 Ba2 Cu3 O6.95,"[Element Sm, Element Ba, Element Cu, Element O]","{'Sm': 1.0, 'Ba': 2.0, 'Cu': 3.0, 'O': 6.95}",Cuprates,4
Sm0.9Pr0.1Ba2Cu3O6.95,65.7,Sm0.9 Pr0.1 Ba2 Cu3 O6.95,"[Element Sm, Element Pr, Element Ba, Element Cu, Element O]","{'Sm': 0.9, 'Pr': 0.1, 'Ba': 2.0, 'Cu': 3.0, 'O': 6.95}",Cuprates,5
Sm0.8Pr0.2Ba2Cu3O6.95,38.3,Sm0.8 Pr0.2 Ba2 Cu3 O6.95,"[Element Sm, Element Pr, Element Ba, Element Cu, Element O]","{'Sm': 0.8, 'Pr': 0.2, 'Ba': 2.0, 'Cu': 3.0, 'O': 6.95}",Cuprates,5
Sm0.7Pr0.3Ba2Cu3O6.95,11.9,Sm0.7 Pr0.3 Ba2 Cu3 O6.95,"[Element Sm, Element Pr, Element Ba, Element Cu, Element O]","{'Sm': 0.7, 'Pr': 0.3, 'Ba': 2.0, 'Cu': 3.0, 'O': 6.95}",Cuprates,5
Tm1Ba2Cu3O6.95,89.0,Tm1 Ba2 Cu3 O6.95,"[Element Tm, Element Ba, Element Cu, Element O]","{'Tm': 1.0, 'Ba': 2.0, 'Cu': 3.0, 'O': 6.95}",Cuprates,4
Tm0.9Pr0.1Ba2Cu3O6.95,87.9,Tm0.9 Pr0.1 Ba2 Cu3 O6.95,"[Element Tm, Element Pr, Element Ba, Element Cu, Element O]","{'Tm': 0.9, 'Pr': 0.1, 'Ba': 2.0, 'Cu': 3.0, 'O': 6.95}",Cuprates,5
Tm0.8Pr0.2Ba2Cu3O6.95,77.9,Tm0.8 Pr0.2 Ba2 Cu3 O6.95,"[Element Tm, Element Pr, Element Ba, Element Cu, Element O]","{'Tm': 0.8, 'Pr': 0.2, 'Ba': 2.0, 'Cu': 3.0, 'O': 6.95}",Cuprates,5
Tm0.7Pr0.3Ba2Cu3O6.95,64.1,Tm0.7 Pr0.3 Ba2 Cu3 O6.95,"[Element Tm, Element Pr, Element Ba, Element Cu, Element O]","{'Tm': 0.7, 'Pr': 0.3, 'Ba': 2.0, 'Cu': 3.0, 'O': 6.95}",Cuprates,5
Tm0.6Pr0.4Ba2Cu3O6.95,50.3,Tm0.6 Pr0.4 Ba2 Cu3 O6.95,"[Element Tm, Element Pr, Element Ba, Element Cu, Element O]","{'Tm': 0.6, 'Pr': 0.4, 'Ba': 2.0, 'Cu': 3.0, 'O': 6.95}",Cuprates,5
Tm0.5Pr0.5Ba2Cu3O6.95,28.9,Tm0.5 Pr0.5 Ba2 Cu3 O6.95,"[Element Tm, Element Pr, Element Ba, Element Cu, Element O]","{'Tm': 0.5, 'Pr': 0.5, 'Ba': 2.0, 'Cu': 3.0, 'O': 6.95}",Cuprates,5
Bi2Sr1.6La0.4Cu1O6.32,23.2,Bi2 Sr1.6 La0.4 Cu1 O6.32,"[Element Bi, Element Sr, Element La, Element Cu, Element O]","{'Bi': 2.0, 'Sr': 1.6, 'La': 0.4, 'Cu': 1.0, 'O': 6.32}",Cuprates,5
Bi2Sr1.6La0.4Cu1O6.29,30.6,Bi2 Sr1.6 La0.4 Cu1 O6.29,"[Element Bi, Element Sr, Element La, Element Cu, Element O]","{'Bi': 2.0, 'Sr': 1.6, 'La': 0.4, 'Cu': 1.0, 'O': 6.29}",Cuprates,5
Bi1.7Pb0.3Sr2Ca1Cu2O0.23,75.75,Bi1.7 Pb0.3 Sr2 Ca1 Cu2 O0.23,"[Element Bi, Element Pb, Element Sr, Element Ca, Element Cu, Element O]","{'Bi': 1.7, 'Pb': 0.3, 'Sr': 2.0, 'Ca': 1.0, 'Cu': 2.0, 'O': 0.23}",Cuprates,6
Bi1.7Pb0.3Sr2Ca1Cu2O0.27,67.6,Bi1.7 Pb0.3 Sr2 Ca1 Cu2 O0.27,"[Element Bi, Element Pb, Element Sr, Element Ca, Element Cu, Element O]","{'Bi': 1.7, 'Pb': 0.3, 'Sr': 2.0, 'Ca': 1.0, 'Cu': 2.0, 'O': 0.27}",Cuprates,6
Sr0.95La0.05Cu1O2.01,42.4,Sr0.95 La0.05 Cu1 O2.01,"[Element Sr, Element La, Element Cu, Element O]","{'Sr': 0.95, 'La': 0.05, 'Cu': 1.0, 'O': 2.01}",Cuprates,4
Sr0.9La0.1Cu1O1.96,42.5,Sr0.9 La0.1 Cu1 O1.96,"[Element Sr, Element La, Element Cu, Element O]","{'Sr': 0.9, 'La': 0.1, 'Cu': 1.0, 'O': 1.96}",Cuprates,4
Sr0.88La0.12Cu1O1.97,42.4,Sr0.88 La0.12 Cu1 O1.97,"[Element Sr, Element La, Element Cu, Element O]","{'Sr': 0.88, 'La': 0.12, 'Cu': 1.0, 'O': 1.97}",Cuprates,4
Ba0.62K0.38Bi1O3,29.5,Ba0.62 K0.38 Bi1 O3,"[Element Ba, Element K, Element Bi, Element O]","{'Ba': 0.62, 'K': 0.38, 'Bi': 1.0, 'O': 3.0}",Other,4
Ba0.7K0.3Bi1O3,29.9,Ba0.7 K0.3 Bi1 O3,"[Element Ba, Element K, Element Bi, Element O]","{'Ba': 0.7, 'K': 0.3, 'Bi': 1.0, 'O': 3.0}",Other,4
Ba0.575K0.425Bi1O3,27.3,Ba0.575 K0.425 Bi1 O3,"[Element Ba, Element K, Element Bi, Element O]","{'Ba': 0.575, 'K': 0.425, 'Bi': 1.0, 'O': 3.0}",Other,4
Lu0.5Pr0.5Ba2Cu3O6.75,40.1,Lu0.5 Pr0.5 Ba2 Cu3 O6.75,"[Element Lu, Element Pr, Element Ba, Element Cu, Element O]","{'Lu': 0.5, 'Pr': 0.5, 'Ba': 2.0, 'Cu': 3.0, 'O': 6.75}",Cuprates,5
Tm0.5Pr0.5Ba2Cu3O6.64,36.0,Tm0.5 Pr0.5 Ba2 Cu3 O6.64,"[Element Tm, Element Pr, Element Ba, Element Cu, Element O]","{'Tm': 0.5, 'Pr': 0.5, 'Ba': 2.0, 'Cu': 3.0, 'O': 6.64}",Cuprates,5
Er0.5Pr0.5Ba2Cu3O6.82,34.4,Er0.5 Pr0.5 Ba2 Cu3 O6.82,"[Element Er, Element Pr, Element Ba, Element Cu, Element O]","{'Er': 0.5, 'Pr': 0.5, 'Ba': 2.0, 'Cu': 3.0, 'O': 6.82}",Cuprates,5
Ho0.5Pr0.5Ba2Cu3O6.67,24.3,Ho0.5 Pr0.5 Ba2 Cu3 O6.67,"[Element Ho, Element Pr, Element Ba, Element Cu, Element O]","{'Ho': 0.5, 'Pr': 0.5, 'Ba': 2.0, 'Cu': 3.0, 'O': 6.67}",Cuprates,5
La2Cu1O4.03,32.0,La2 Cu1 O4.03,"[Element La, Element Cu, Element O]","{'La': 2.0, 'Cu': 1.0, 'O': 4.03}",Cuprates,3
La2Cu1O4.11,45.0,La2 Cu1 O4.11,"[Element La, Element Cu, Element O]","{'La': 2.0, 'Cu': 1.0, 'O': 4.11}",Cuprates,3
La1.75Sr0.25Cu1O4.07,37.0,La1.75 Sr0.25 Cu1 O4.07,"[Element La, Element Sr, Element Cu, Element O]","{'La': 1.75, 'Sr': 0.25, 'Cu': 1.0, 'O': 4.07}",Cuprates,4
La1.67Sr0.33Cu1O4,37.0,La1.67 Sr0.33 Cu1 O4,"[Element La, Element Sr, Element Cu, Element O]","{'La': 1.67, 'Sr': 0.33, 'Cu': 1.0, 'O': 4.0}",Cuprates,4
La1.99Sr0.01Cu1O4.13,40.0,La1.99 Sr0.01 Cu1 O4.13,"[Element La, Element Sr, Element Cu, Element O]","{'La': 1.99, 'Sr': 0.01, 'Cu': 1.0, 'O': 4.13}",Cuprates,4
La1.98Sr0.02Cu1O4.09,40.0,La1.98 Sr0.02 Cu1 O4.09,"[Element La, Element Sr, Element Cu, Element O]","{'La': 1.98, 'Sr': 0.02, 'Cu': 1.0, 'O': 4.09}",Cuprates,4
La1.97Sr0.03Cu1O4.06,39.0,La1.97 Sr0.03 Cu1 O4.06,"[Element La, Element Sr, Element Cu, Element O]","{'La': 1.97, 'Sr': 0.03, 'Cu': 1.0, 'O': 4.06}",Cuprates,4
La1.96Sr0.04Cu1O4.05,40.0,La1.96 Sr0.04 Cu1 O4.05,"[Element La, Element Sr, Element Cu, Element O]","{'La': 1.96, 'Sr': 0.04, 'Cu': 1.0, 'O': 4.05}",Cuprates,4
La1.85Sr0.15Cu1O4.05,39.0,La1.85 Sr0.15 Cu1 O4.05,"[Element La, Element Sr, Element Cu, Element O]","{'La': 1.85, 'Sr': 0.15, 'Cu': 1.0, 'O': 4.05}",Cuprates,4
Tl2Ba2Ca3Cu4O12,120.0,Tl2 Ba2 Ca3 Cu4 O12,"[Element Tl, Element Ba, Element Ca, Element Cu, Element O]","{'Tl': 2.0, 'Ba': 2.0, 'Ca': 3.0, 'Cu': 4.0, 'O': 12.0}",Cuprates,5
Tl2Ba2Ca4Cu5O14,124.0,Tl2 Ba2 Ca4 Cu5 O14,"[Element Tl, Element Ba, Element Ca, Element Cu, Element O]","{'Tl': 2.0, 'Ba': 2.0, 'Ca': 4.0, 'Cu': 5.0, 'O': 14.0}",Cuprates,5
Tl2Ba2Ca5Cu6O16,120.0,Tl2 Ba2 Ca5 Cu6 O16,"[Element Tl, Element Ba, Element Ca, Element Cu, Element O]","{'Tl': 2.0, 'Ba': 2.0, 'Ca': 5.0, 'Cu': 6.0, 'O': 16.0}",Cuprates,5
Bi8Sr6Ca6Cu9O33.964,80.0,Bi8 Sr6 Ca6 Cu9 O33.964,"[Element Bi, Element Sr, Element Ca, Element Cu, Element O]","{'Bi': 8.0, 'Sr': 6.0, 'Ca': 6.0, 'Cu': 9.0, 'O': 33.964}",Cuprates,5
Bi8Sr6Ca6Cu9O33.912,85.0,Bi8 Sr6 Ca6 Cu9 O33.912,"[Element Bi, Element Sr, Element Ca, Element Cu, Element O]","{'Bi': 8.0, 'Sr': 6.0, 'Ca': 6.0, 'Cu': 9.0, 'O': 33.912}",Cuprates,5
Bi8Sr6Ca6Cu9O33.85,72.5,Bi8 Sr6 Ca6 Cu9 O33.85,"[Element Bi, Element Sr, Element Ca, Element Cu, Element O]","{'Bi': 8.0, 'Sr': 6.0, 'Ca': 6.0, 'Cu': 9.0, 'O': 33.85}",Cuprates,5
Bi8Sr6Ca6Cu9O34,74.3,Bi8 Sr6 Ca6 Cu9 O34,"[Element Bi, Element Sr, Element Ca, Element Cu, Element O]","{'Bi': 8.0, 'Sr': 6.0, 'Ca': 6.0, 'Cu': 9.0, 'O': 34.0}",Cuprates,5
Bi8Sr8Ca4Cu9O34.16,94.2,Bi8 Sr8 Ca4 Cu9 O34.16,"[Element Bi, Element Sr, Element Ca, Element Cu, Element O]","{'Bi': 8.0, 'Sr': 8.0, 'Ca': 4.0, 'Cu': 9.0, 'O': 34.16}",Cuprates,5
Bi8Sr8Ca4Cu9O34.25,73.5,Bi8 Sr8 Ca4 Cu9 O34.25,"[Element Bi, Element Sr, Element Ca, Element Cu, Element O]","{'Bi': 8.0, 'Sr': 8.0, 'Ca': 4.0, 'Cu': 9.0, 'O': 34.25}",Cuprates,5
Bi8Sr7Ca5Cu9O34.13,72.5,Bi8 Sr7 Ca5 Cu9 O34.13,"[Element Bi, Element Sr, Element Ca, Element Cu, Element O]","{'Bi': 8.0, 'Sr': 7.0, 'Ca': 5.0, 'Cu': 9.0, 'O': 34.13}",Cuprates,5
Bi8Sr5Ca7Cu9O34.94,74.4,Bi8 Sr5 Ca7 Cu9 O34.94,"[Element Bi, Element Sr, Element Ca, Element Cu, Element O]","{'Bi': 8.0, 'Sr': 5.0, 'Ca': 7.0, 'Cu': 9.0, 'O': 34.94}",Cuprates,5
Ca1La1Ba1Cu3O7,80.0,Ca1 La1 Ba1 Cu3 O7,"[Element Ca, Element La, Element Ba, Element Cu, Element O]","{'Ca': 1.0, 'La': 1.0, 'Ba': 1.0, 'Cu': 3.0, 'O': 7.0}",Cuprates,5
Tl0.5Pb0.5Sr1.6Ca2.4Cu3O9,113.0,Tl0.5 Pb0.5 Sr1.6 Ca2.4 Cu3 O9,"[Element Tl, Element Pb, Element Sr, Element Ca, Element Cu, Element O]","{'Tl': 0.5, 'Pb': 0.5, 'Sr': 1.6, 'Ca': 2.4, 'Cu': 3.0, 'O': 9.0}",Cuprates,6
La1.82Sr0.18Cu1O4,37.0,La1.82 Sr0.18 Cu1 O4,"[Element La, Element Sr, Element Cu, Element O]","{'La': 1.82, 'Sr': 0.18, 'Cu': 1.0, 'O': 4.0}",Cuprates,4
La1.82Sr0.18Cu1O3.994,34.0,La1.82 Sr0.18 Cu1 O3.994,"[Element La, Element Sr, Element Cu, Element O]","{'La': 1.82, 'Sr': 0.18, 'Cu': 1.0, 'O': 3.994}",Cuprates,4