chemical_formula,Tc,composition,elements,stoichiometry,Category,num_elements
Nb3Al0.8Ga0.2,18.54,Nb3 Al0.8 Ga0.2,"[Element Nb, Element Al, Element Ga]","{'Nb': 3.0, 'Al': 0.8, 'Ga': 0.2}",Other,3
Nb3Al0.67Ga0.33,18.7,Nb3 Al0.67 Ga0.33,"[Element Nb, Element Al, Element Ga]","{'Nb': 3.0, 'Al': 0.67, 'Ga': 0.33}",Other,3
Nb3Al0.9In0.1,18.3,Nb3 Al0.9 In0.1,"[Element Nb, Element Al, Element In]","{'Nb': 3.0, 'Al': 0.9, 'In': 0.1}",Other,3
Nb3Al0.8In0.2,18.1,Nb3 Al0.8 In0.2,"[Element Nb, Element Al, Element In]","{'Nb': 3.0, 'Al': 0.8, 'In': 0.2}",Other,3
Nb3Al0.67In0.33,16.0,Nb3 Al0.67 In0.33,"[Element Nb, Element Al, Element In]","{'Nb': 3.0, 'Al': 0.67, 'In': 0.33}",Other,3
Nb3Sn0.65Ga0.35,16.5,Nb3 Sn0.65 Ga0.35,"[Element Nb, Element Sn, Element Ga]","{'Nb': 3.0, 'Sn': 0.65, 'Ga': 0.35}",Other,3
Nb3Sn0.5Ga0.5,16.4,Nb3 Sn0.5 Ga0.5,"[Element Nb, Element Sn, Element Ga]","{'Nb': 3.0, 'Sn': 0.5, 'Ga': 0.5}",Other,3
Nb3Sn0.95Ge0.05,18.1,Nb3 Sn0.95 Ge0.05,"[Element Nb, Element Sn, Element Ge]","{'Nb': 3.0, 'Sn': 0.95, 'Ge': 0.05}",Other,3
Nb3Sn0.9Ge0.1,18.0,Nb3 Sn0.9 Ge0.1,"[Element Nb, Element Sn, Element Ge]","{'Nb': 3.0, 'Sn': 0.9, 'Ge': 0.1}",Other,3
Nb3Sn0.65Ge0.35,16.1,Nb3 Sn0.65 Ge0.35,"[Element Nb, Element Sn, Element Ge]","{'Nb': 3.0, 'Sn': 0.65, 'Ge': 0.35}",Other,3
Nb3Sn0.9In0.1,18.1,Nb3 Sn0.9 In0.1,"[Element Nb, Element Sn, Element In]","{'Nb': 3.0, 'Sn': 0.9, 'In': 0.1}",Other,3
Nb3Sn0.8In0.2,17.8,Nb3 Sn0.8 In0.2,"[Element Nb, Element Sn, Element In]","{'Nb': 3.0, 'Sn': 0.8, 'In': 0.2}",Other,3
Nb3Sn0.7Al0.3,15.8,Nb3 Sn0.7 Al0.3,"[Element Nb, Element Sn, Element Al]","{'Nb': 3.0, 'Sn': 0.7, 'Al': 0.3}",Other,3
Nb3Ga0.85Al0.15,17.1,Nb3 Ga0.85 Al0.15,"[Element Nb, Element Ga, Element Al]","{'Nb': 3.0, 'Ga': 0.85, 'Al': 0.15}",Other,3
Nb3Ga0.67Al0.33,18.1,Nb3 Ga0.67 Al0.33,"[Element Nb, Element Ga, Element Al]","{'Nb': 3.0, 'Ga': 0.67, 'Al': 0.33}",Other,3
Nb3Ga0.95Ge0.05,15.3,Nb3 Ga0.95 Ge0.05,"[Element Nb, Element Ga, Element Ge]","{'Nb': 3.0, 'Ga': 0.95, 'Ge': 0.05}",Other,3
Pb0.9904Sb0.0096,7.29,Pb0.9904 Sb0.0096,"[Element Pb, Element Sb]","{'Pb': 0.9904, 'Sb': 0.0096}",Other,2
Bi0.0105Pb0.9895,7.214,Bi0.0105 Pb0.9895,"[Element Bi, Element Pb]","{'Bi': 0.0105, 'Pb': 0.9895}",Other,2
Pb0.9769Sn0.0231,7.213,Pb0.9769 Sn0.0231,"[Element Pb, Element Sn]","{'Pb': 0.9769, 'Sn': 0.0231}",Other,2
Pb0.95Tl0.025Bi0.025,7.214,Pb0.95 Tl0.025 Bi0.025,"[Element Pb, Element Tl, Element Bi]","{'Pb': 0.95, 'Tl': 0.025, 'Bi': 0.025}",Other,3
Hg0.0307Pb0.9693,7.134,Hg0.0307 Pb0.9693,"[Element Hg, Element Pb]","{'Hg': 0.0307, 'Pb': 0.9693}",Other,2
In0.0293Pb0.9707,7.109,In0.0293 Pb0.9707,"[Element In, Element Pb]","{'In': 0.0293, 'Pb': 0.9707}",Other,2
Pb0.9848Tl0.0152,7.135,Pb0.9848 Tl0.0152,"[Element Pb, Element Tl]","{'Pb': 0.9848, 'Tl': 0.0152}",Other,2
Ce0.86Tb0.14Ru2,4.51,Ce0.86 Tb0.14 Ru2,"[Element Ce, Element Tb, Element Ru]","{'Ce': 0.86, 'Tb': 0.14, 'Ru': 2.0}",Other,3
La2.98Ce0.02In1,8.2,La2.98 Ce0.02 In1,"[Element La, Element Ce, Element In]","{'La': 2.98, 'Ce': 0.02, 'In': 1.0}",Other,3
La2.96Ce0.04In1,7.01,La2.96 Ce0.04 In1,"[Element La, Element Ce, Element In]","{'La': 2.96, 'Ce': 0.04, 'In': 1.0}",Other,3
La2.94Ce0.06In1,5.58,La2.94 Ce0.06 In1,"[Element La, Element Ce, Element In]","{'La': 2.94, 'Ce': 0.06, 'In': 1.0}",Other,3
Mo0.98Nb0.02Ga4,8.0,Mo0.98 Nb0.02 Ga4,"[Element Mo, Element Nb, Element Ga]","{'Mo': 0.98, 'Nb': 0.02, 'Ga': 4.0}",Other,3
Mo0.96Nb0.04Ga4,8.0,Mo0.96 Nb0.04 Ga4,"[Element Mo, Element Nb, Element Ga]","{'Mo': 0.96, 'Nb': 0.04, 'Ga': 4.0}",Other,3
Mo0.96Ru0.04Ga4,7.63,Mo0.96 Ru0.04 Ga4,"[Element Mo, Element Ru, Element Ga]","{'Mo': 0.96, 'Ru': 0.04, 'Ga': 4.0}",Other,3
Mo0.96Co0.04Ga4,7.07,Mo0.96 Co0.04 Ga4,"[Element Mo, Element Co, Element Ga]","{'Mo': 0.96, 'Co': 0.04, 'Ga': 4.0}",Other,3
Mo0.97Fe0.03Ga4,5.13,Mo0.97 Fe0.03 Ga4,"[Element Mo, Element Fe, Element Ga]","{'Mo': 0.97, 'Fe': 0.03, 'Ga': 4.0}",Fe-based,3
Mo0.94Fe0.06Ga4,2.6,Mo0.94 Fe0.06 Ga4,"[Element Mo, Element Fe, Element Ga]","{'Mo': 0.94, 'Fe': 0.06, 'Ga': 4.0}",Fe-based,3
Mo0.99Mn0.01Ga4,3.94,Mo0.99 Mn0.01 Ga4,"[Element Mo, Element Mn, Element Ga]","{'Mo': 0.99, 'Mn': 0.01, 'Ga': 4.0}",Other,3
Co0.01Mo99.99,0.71,Co0.01 Mo99.99,"[Element Co, Element Mo]","{'Co': 0.01, 'Mo': 99.99}",Other,2
Co0.015Mo99.985,0.59,Co0.015 Mo99.985,"[Element Co, Element Mo]","{'Co': 0.015, 'Mo': 99.985}",Other,2
Co0.032Mo99.968,0.31,Co0.032 Mo99.968,"[Element Co, Element Mo]","{'Co': 0.032, 'Mo': 99.968}",Other,2
Co0.038Mo99.962,0.22,Co0.038 Mo99.962,"[Element Co, Element Mo]","{'Co': 0.038, 'Mo': 99.962}",Other,2
Fe0.008Mo99.992,0.645,Fe0.008 Mo99.992,"[Element Fe, Element Mo]","{'Fe': 0.008, 'Mo': 99.992}",Fe-based,2
Fe0.011Mo99.989,0.51,Fe0.011 Mo99.989,"[Element Fe, Element Mo]","{'Fe': 0.011, 'Mo': 99.989}",Fe-based,2
Ag0.5Al0.5Th2,0.78,Ag0.5 Al0.5 Th2,"[Element Ag, Element Al, Element Th]","{'Ag': 0.5, 'Al': 0.5, 'Th': 2.0}",Other,3
Al0.5Ge0.5Th2,0.21,Al0.5 Ge0.5 Th2,"[Element Al, Element Ge, Element Th]","{'Al': 0.5, 'Ge': 0.5, 'Th': 2.0}",Other,3
Co0.5Ni0.5Ta2,0.91,Co0.5 Ni0.5 Ta2,"[Element Co, Element Ni, Element Ta]","{'Co': 0.5, 'Ni': 0.5, 'Ta': 2.0}",Other,3
B1Mo1Re1,5.09,B1 Mo1 Re1,"[Element B, Element Mo, Element Re]","{'B': 1.0, 'Mo': 1.0, 'Re': 1.0}",Other,3
B1Ta0.5W1.5,1.94,B1 Ta0.5 W1.5,"[Element B, Element Ta, Element W]","{'B': 1.0, 'Ta': 0.5, 'W': 1.5}",Other,3
B1W1.26Re0.74,5.1,B1 W1.26 Re0.74,"[Element B, Element W, Element Re]","{'B': 1.0, 'W': 1.26, 'Re': 0.74}",Other,3
Rh0.106Ti0.894,4.28,Rh0.106 Ti0.894,"[Element Rh, Element Ti]","{'Rh': 0.106, 'Ti': 0.894}",Other,2
Nb0.95W0.05,7.25,Nb0.95 W0.05,"[Element Nb, Element W]","{'Nb': 0.95, 'W': 0.05}",Other,2
Nb0.85W0.15,5.32,Nb0.85 W0.15,"[Element Nb, Element W]","{'Nb': 0.85, 'W': 0.15}",Other,2
Mo0.3Nb0.7,2.67,Mo0.3 Nb0.7,"[Element Mo, Element Nb]","{'Mo': 0.3, 'Nb': 0.7}",Other,2
Mo0.33Re0.67,5.89,Mo0.33 Re0.67,"[Element Mo, Element Re]","{'Mo': 0.33, 'Re': 0.67}",Other,2
Ti0.91V0.09,6.3,Ti0.91 V0.09,"[Element Ti, Element V]","{'Ti': 0.91, 'V': 0.09}",Other,2
Ti0.2V0.8,7.46,Ti0.2 V0.8,"[Element Ti, Element V]","{'Ti': 0.2, 'V': 0.8}",Other,2
Cr0.06V0.94,2.93,Cr0.06 V0.94,"[Element Cr, Element V]","{'Cr': 0.06, 'V': 0.94}",Other,2
Nb0.35Ti0.65,7.69,Nb0.35 Ti0.65,"[Element Nb, Element Ti]","{'Nb': 0.35, 'Ti': 0.65}",Other,2
Hf0.5Ta0.5,6.28,Hf0.5 Ta0.5,"[Element Hf, Element Ta]","{'Hf': 0.5, 'Ta': 0.5}",Other,2
Hf0.32Ta0.68,6.68,Hf0.32 Ta0.68,"[Element Hf, Element Ta]","{'Hf': 0.32, 'Ta': 0.68}",Other,2
Hf0.16Ta0.84,5.98,Hf0.16 Ta0.84,"[Element Hf, Element Ta]","{'Hf': 0.16, 'Ta': 0.84}",Other,2
Hf0.08Ta0.92,5.38,Hf0.08 Ta0.92,"[Element Hf, Element Ta]","{'Hf': 0.08, 'Ta': 0.92}",Other,2
Ta0.96W0.04,3.5,Ta0.96 W0.04,"[Element Ta, Element W]","{'Ta': 0.96, 'W': 0.04}",Other,2
Ta0.92W0.08,2.85,Ta0.92 W0.08,"[Element Ta, Element W]","{'Ta': 0.92, 'W': 0.08}",Other,2
Ta0.85W0.15,1.95,Ta0.85 W0.15,"[Element Ta, Element W]","{'Ta': 0.85, 'W': 0.15}",Other,2
Re0.4W0.6,5.08,Re0.4 W0.6,"[Element Re, Element W]","{'Re': 0.4, 'W': 0.6}",Other,2
Hf0.2Nb0.8,9.48,Hf0.2 Nb0.8,"[Element Hf, Element Nb]","{'Hf': 0.2, 'Nb': 0.8}",Other,2
Hf0.1Nb0.9,9.6,Hf0.1 Nb0.9,"[Element Hf, Element Nb]","{'Hf': 0.1, 'Nb': 0.9}",Other,2
Hf0.05Nb0.95,9.52,Hf0.05 Nb0.95,"[Element Hf, Element Nb]","{'Hf': 0.05, 'Nb': 0.95}",Other,2
Cr0.05Nb0.95,6.66,Cr0.05 Nb0.95,"[Element Cr, Element Nb]","{'Cr': 0.05, 'Nb': 0.95}",Other,2
Cr0.1Nb0.9,4.66,Cr0.1 Nb0.9,"[Element Cr, Element Nb]","{'Cr': 0.1, 'Nb': 0.9}",Other,2
Nb0.4V0.6,4.11,Nb0.4 V0.6,"[Element Nb, Element V]","{'Nb': 0.4, 'V': 0.6}",Other,2
Nb0.55V0.45,4.11,Nb0.55 V0.45,"[Element Nb, Element V]","{'Nb': 0.55, 'V': 0.45}",Other,2
Nb0.6V0.4,4.17,Nb0.6 V0.4,"[Element Nb, Element V]","{'Nb': 0.6, 'V': 0.4}",Other,2
Nb0.85V0.15,6.0,Nb0.85 V0.15,"[Element Nb, Element V]","{'Nb': 0.85, 'V': 0.15}",Other,2
Nb0.8Ta0.2,7.82,Nb0.8 Ta0.2,"[Element Nb, Element Ta]","{'Nb': 0.8, 'Ta': 0.2}",Other,2
Nb0.63Ta0.37,6.84,Nb0.63 Ta0.37,"[Element Nb, Element Ta]","{'Nb': 0.63, 'Ta': 0.37}",Other,2
Nb0.4Ta0.6,5.54,Nb0.4 Ta0.6,"[Element Nb, Element Ta]","{'Nb': 0.4, 'Ta': 0.6}",Other,2
Cr0.3Ru0.7,0.38,Cr0.3 Ru0.7,"[Element Cr, Element Ru]","{'Cr': 0.3, 'Ru': 0.7}",Other,2
Cr1Ru2,2.0,Cr1 Ru2,"[Element Cr, Element Ru]","{'Cr': 1.0, 'Ru': 2.0}",Other,2
Cr1Ru3,3.3,Cr1 Ru3,"[Element Cr, Element Ru]","{'Cr': 1.0, 'Ru': 3.0}",Other,2
Cr0.125Ru0.875,1.2,Cr0.125 Ru0.875,"[Element Cr, Element Ru]","{'Cr': 0.125, 'Ru': 0.875}",Other,2
Cr0.7Rh0.3,1.1,Cr0.7 Rh0.3,"[Element Cr, Element Rh]","{'Cr': 0.7, 'Rh': 0.3}",Other,2
Cr0.28Ir0.72,0.83,Cr0.28 Ir0.72,"[Element Cr, Element Ir]","{'Cr': 0.28, 'Ir': 0.72}",Other,2
Cr0.09Ir0.91,0.78,Cr0.09 Ir0.91,"[Element Cr, Element Ir]","{'Cr': 0.09, 'Ir': 0.91}",Other,2
Nb0.8W0.2,4.68,Nb0.8 W0.2,"[Element Nb, Element W]","{'Nb': 0.8, 'W': 0.2}",Other,2
Cr0.25V0.75,1.36,Cr0.25 V0.75,"[Element Cr, Element V]","{'Cr': 0.25, 'V': 0.75}",Other,2
Cr0.39V0.61,0.37,Cr0.39 V0.61,"[Element Cr, Element V]","{'Cr': 0.39, 'V': 0.61}",Other,2
Cr0.48V0.52,0.1,Cr0.48 V0.52,"[Element Cr, Element V]","{'Cr': 0.48, 'V': 0.52}",Other,2
Cr0.06Mo0.94,0.71,Cr0.06 Mo0.94,"[Element Cr, Element Mo]","{'Cr': 0.06, 'Mo': 0.94}",Other,2
Cr0.15Mo0.85,0.5,Cr0.15 Mo0.85,"[Element Cr, Element Mo]","{'Cr': 0.15, 'Mo': 0.85}",Other,2
Cr0.25Mo0.75,0.155,Cr0.25 Mo0.75,"[Element Cr, Element Mo]","{'Cr': 0.25, 'Mo': 0.75}",Other,2
Cr0.4Mo0.6,0.095,Cr0.4 Mo0.6,"[Element Cr, Element Mo]","{'Cr': 0.4, 'Mo': 0.6}",Other,2
Cr0.476Mo0.524,0.045,Cr0.476 Mo0.524,"[Element Cr, Element Mo]","{'Cr': 0.476, 'Mo': 0.524}",Other,2
Cr0.57Mo0.43,0.03,Cr0.57 Mo0.43,"[Element Cr, Element Mo]","{'Cr': 0.57, 'Mo': 0.43}",Other,2
Fe0.018Ru0.982,0.165,Fe0.018 Ru0.982,"[Element Fe, Element Ru]","{'Fe': 0.018, 'Ru': 0.982}",Fe-based,2
Fe0.031Ru0.969,0.054,Fe0.031 Ru0.969,"[Element Fe, Element Ru]","{'Fe': 0.031, 'Ru': 0.969}",Fe-based,2
Fe0.043Ru0.957,0.018,Fe0.043 Ru0.957,"[Element Fe, Element Ru]","{'Fe': 0.043, 'Ru': 0.957}",Fe-based,2
U6Co0.5Ni0.5,1.37,U6 Co0.5 Ni0.5,"[Element U, Element Co, Element Ni]","{'U': 6.0, 'Co': 0.5, 'Ni': 0.5}",Other,3
Cu0.005V0.995,4.92,Cu0.005 V0.995,"[Element Cu, Element V]","{'Cu': 0.005, 'V': 0.995}",Other,2
Cu0.01V0.99,4.74,Cu0.01 V0.99,"[Element Cu, Element V]","{'Cu': 0.01, 'V': 0.99}",Other,2
Cu0.025V0.975,4.45,Cu0.025 V0.975,"[Element Cu, Element V]","{'Cu': 0.025, 'V': 0.975}",Other,2
Cu0.05V0.95,3.85,Cu0.05 V0.95,"[Element Cu, Element V]","{'Cu': 0.05, 'V': 0.95}",Other,2
Si0.005V0.995,4.75,Si0.005 V0.995,"[Element Si, Element V]","{'Si': 0.005, 'V': 0.995}",Other,2
Si0.01V0.99,4.66,Si0.01 V0.99,"[Element Si, Element V]","{'Si': 0.01, 'V': 0.99}",Other,2
Si0.025V0.975,4.06,Si0.025 V0.975,"[Element Si, Element V]","{'Si': 0.025, 'V': 0.975}",Other,2
Si0.05V0.95,2.95,Si0.05 V0.95,"[Element Si, Element V]","{'Si': 0.05, 'V': 0.95}",Other,2
Al0.005V0.995,4.82,Al0.005 V0.995,"[Element Al, Element V]","{'Al': 0.005, 'V': 0.995}",Other,2
Al0.01V0.99,4.49,Al0.01 V0.99,"[Element Al, Element V]","{'Al': 0.01, 'V': 0.99}",Other,2
Al0.02V0.98,4.05,Al0.02 V0.98,"[Element Al, Element V]","{'Al': 0.02, 'V': 0.98}",Other,2
Al0.04V0.96,3.31,Al0.04 V0.96,"[Element Al, Element V]","{'Al': 0.04, 'V': 0.96}",Other,2
Al0.06V0.94,2.83,Al0.06 V0.94,"[Element Al, Element V]","{'Al': 0.06, 'V': 0.94}",Other,2
Al0.08V0.92,2.36,Al0.08 V0.92,"[Element Al, Element V]","{'Al': 0.08, 'V': 0.92}",Other,2
Al0.1V0.9,1.96,Al0.1 V0.9,"[Element Al, Element V]","{'Al': 0.1, 'V': 0.9}",Other,2
Al0.12V0.88,1.73,Al0.12 V0.88,"[Element Al, Element V]","{'Al': 0.12, 'V': 0.88}",Other,2
Sn0.005V0.995,4.57,Sn0.005 V0.995,"[Element Sn, Element V]","{'Sn': 0.005, 'V': 0.995}",Other,2
Sn0.01V0.99,4.21,Sn0.01 V0.99,"[Element Sn, Element V]","{'Sn': 0.01, 'V': 0.99}",Other,2
Sn0.025V0.975,3.16,Sn0.025 V0.975,"[Element Sn, Element V]","{'Sn': 0.025, 'V': 0.975}",Other,2
Cr0.56Re0.44,5.1,Cr0.56 Re0.44,"[Element Cr, Element Re]","{'Cr': 0.56, 'Re': 0.44}",Other,2
Cr0.8Re0.2,1.31,Cr0.8 Re0.2,"[Element Cr, Element Re]","{'Cr': 0.8, 'Re': 0.2}",Other,2
Cr0.33Re0.67,2.29,Cr0.33 Re0.67,"[Element Cr, Element Re]","{'Cr': 0.33, 'Re': 0.67}",Other,2
Cu0.98Co0.02Rh2S4,1.0,Cu0.98 Co0.02 Rh2 S4,"[Element Cu, Element Co, Element Rh, Element S]","{'Cu': 0.98, 'Co': 0.02, 'Rh': 2.0, 'S': 4.0}",Other,4
Ir0.49Mo0.51,1.81,Ir0.49 Mo0.51,"[Element Ir, Element Mo]","{'Ir': 0.49, 'Mo': 0.51}",Other,2
Ir0.66Mo0.34,0.25,Ir0.66 Mo0.34,"[Element Ir, Element Mo]","{'Ir': 0.66, 'Mo': 0.34}",Other,2
Ir0.71Mo0.29,0.12,Ir0.71 Mo0.29,"[Element Ir, Element Mo]","{'Ir': 0.71, 'Mo': 0.29}",Other,2
Ir0.75Mo0.25,0.13,Ir0.75 Mo0.25,"[Element Ir, Element Mo]","{'Ir': 0.75, 'Mo': 0.25}",Other,2
Mo0.5Rh0.5,1.91,Mo0.5 Rh0.5,"[Element Mo, Element Rh]","{'Mo': 0.5, 'Rh': 0.5}",Other,2
Mo0.4Rh0.6,0.91,Mo0.4 Rh0.6,"[Element Mo, Element Rh]","{'Mo': 0.4, 'Rh': 0.6}",Other,2
Mo0.33Rh0.67,0.1,Mo0.33 Rh0.67,"[Element Mo, Element Rh]","{'Mo': 0.33, 'Rh': 0.67}",Other,2
Mo0.28Rh0.72,0.03,Mo0.28 Rh0.72,"[Element Mo, Element Rh]","{'Mo': 0.28, 'Rh': 0.72}",Other,2
Co0.007Ru0.993,0.4,Co0.007 Ru0.993,"[Element Co, Element Ru]","{'Co': 0.007, 'Ru': 0.993}",Other,2
Co0.015Ru0.985,0.32,Co0.015 Ru0.985,"[Element Co, Element Ru]","{'Co': 0.015, 'Ru': 0.985}",Other,2
Co0.022Ru0.978,0.27,Co0.022 Ru0.978,"[Element Co, Element Ru]","{'Co': 0.022, 'Ru': 0.978}",Other,2
Co0.027Ru0.973,0.25,Co0.027 Ru0.973,"[Element Co, Element Ru]","{'Co': 0.027, 'Ru': 0.973}",Other,2
Co0.034Ru0.964,0.2,Co0.034 Ru0.964,"[Element Co, Element Ru]","{'Co': 0.034, 'Ru': 0.964}",Other,2
Co0.07Ru0.93,0.09,Co0.07 Ru0.93,"[Element Co, Element Ru]","{'Co': 0.07, 'Ru': 0.93}",Other,2
Ni0.007Ru0.993,0.44,Ni0.007 Ru0.993,"[Element Ni, Element Ru]","{'Ni': 0.007, 'Ru': 0.993}",Other,2
Ni0.031Ru0.969,0.36,Ni0.031 Ru0.969,"[Element Ni, Element Ru]","{'Ni': 0.031, 'Ru': 0.969}",Other,2
Ni0.08Ru0.92,0.2,Ni0.08 Ru0.92,"[Element Ni, Element Ru]","{'Ni': 0.08, 'Ru': 0.92}",Other,2
Rh0.04Ru0.96,0.38,Rh0.04 Ru0.96,"[Element Rh, Element Ru]","{'Rh': 0.04, 'Ru': 0.96}",Other,2
Rh0.105Ru0.895,0.27,Rh0.105 Ru0.895,"[Element Rh, Element Ru]","{'Rh': 0.105, 'Ru': 0.895}",Other,2
Rh0.2Ru0.8,0.18,Rh0.2 Ru0.8,"[Element Rh, Element Ru]","{'Rh': 0.2, 'Ru': 0.8}",Other,2
Rh0.32Ru0.68,0.11,Rh0.32 Ru0.68,"[Element Rh, Element Ru]","{'Rh': 0.32, 'Ru': 0.68}",Other,2
Pt0.014Ru0.986,0.43,Pt0.014 Ru0.986,"[Element Pt, Element Ru]","{'Pt': 0.014, 'Ru': 0.986}",Other,2
Pt0.06Ru0.94,0.29,Pt0.06 Ru0.94,"[Element Pt, Element Ru]","{'Pt': 0.06, 'Ru': 0.94}",Other,2
Pt0.113Ru0.887,0.21,Pt0.113 Ru0.887,"[Element Pt, Element Ru]","{'Pt': 0.113, 'Ru': 0.887}",Other,2
Ir0.036Ru0.964,0.41,Ir0.036 Ru0.964,"[Element Ir, Element Ru]","{'Ir': 0.036, 'Ru': 0.964}",Other,2
Ir0.14Ru0.86,0.28,Ir0.14 Ru0.86,"[Element Ir, Element Ru]","{'Ir': 0.14, 'Ru': 0.86}",Other,2
Ir0.22Ru0.78,0.21,Ir0.22 Ru0.78,"[Element Ir, Element Ru]","{'Ir': 0.22, 'Ru': 0.78}",Other,2
Ir0.32Ru0.68,0.18,Ir0.32 Ru0.68,"[Element Ir, Element Ru]","{'Ir': 0.32, 'Ru': 0.68}",Other,2
Ir0.43Ru0.57,0.18,Ir0.43 Ru0.57,"[Element Ir, Element Ru]","{'Ir': 0.43, 'Ru': 0.57}",Other,2
Cu1Rh1.9Sn0.1Se4,2.86,Cu1 Rh1.9 Sn0.1 Se4,"[Element Cu, Element Rh, Element Sn, Element Se]","{'Cu': 1.0, 'Rh': 1.9, 'Sn': 0.1, 'Se': 4.0}",Other,4
Cu1Rh1.78Sn0.22Se4,1.92,Cu1 Rh1.78 Sn0.22 Se4,"[Element Cu, Element Rh, Element Sn, Element Se]","{'Cu': 1.0, 'Rh': 1.78, 'Sn': 0.22, 'Se': 4.0}",Other,4
Cu1Rh1.7Sn0.3Se4,1.26,Cu1 Rh1.7 Sn0.3 Se4,"[Element Cu, Element Rh, Element Sn, Element Se]","{'Cu': 1.0, 'Rh': 1.7, 'Sn': 0.3, 'Se': 4.0}",Other,4
Cu1Rh1.6Sn0.4Se4,0.57,Cu1 Rh1.6 Sn0.4 Se4,"[Element Cu, Element Rh, Element Sn, Element Se]","{'Cu': 1.0, 'Rh': 1.6, 'Sn': 0.4, 'Se': 4.0}",Other,4
Cu1Rh1.5Sn0.5Se4,0.14,Cu1 Rh1.5 Sn0.5 Se4,"[Element Cu, Element Rh, Element Sn, Element Se]","{'Cu': 1.0, 'Rh': 1.5, 'Sn': 0.5, 'Se': 4.0}",Other,4
Rh1Se2,4.35,Rh1 Se2,"[Element Rh, Element Se]","{'Rh': 1.0, 'Se': 2.0}",Other,2
Rh0.88Ru0.12Se2,2.28,Rh0.88 Ru0.12 Se2,"[Element Rh, Element Ru, Element Se]","{'Rh': 0.88, 'Ru': 0.12, 'Se': 2.0}",Other,3
Rh0.8Ru0.2Se2,1.33,Rh0.8 Ru0.2 Se2,"[Element Rh, Element Ru, Element Se]","{'Rh': 0.8, 'Ru': 0.2, 'Se': 2.0}",Other,3
Rh0.7Ru0.3Se2,0.62,Rh0.7 Ru0.3 Se2,"[Element Rh, Element Ru, Element Se]","{'Rh': 0.7, 'Ru': 0.3, 'Se': 2.0}",Other,3
Rh0.6Ru0.4Se2,0.18,Rh0.6 Ru0.4 Se2,"[Element Rh, Element Ru, Element Se]","{'Rh': 0.6, 'Ru': 0.4, 'Se': 2.0}",Other,3
Ce0.03La0.97,1.21,Ce0.03 La0.97,"[Element Ce, Element La]","{'Ce': 0.03, 'La': 0.97}",Other,2
La0.9916Sm0.0084,4.22,La0.9916 Sm0.0084,"[Element La, Element Sm]","{'La': 0.9916, 'Sm': 0.0084}",Other,2
La0.9795Sm0.0205,1.27,La0.9795 Sm0.0205,"[Element La, Element Sm]","{'La': 0.9795, 'Sm': 0.0205}",Other,2
Ho0.0105La0.9895,5.2,Ho0.0105 La0.9895,"[Element Ho, Element La]","{'Ho': 0.0105, 'La': 0.9895}",Other,2
Ho0.0422La0.9578,1.2,Ho0.0422 La0.9578,"[Element Ho, Element La]","{'Ho': 0.0422, 'La': 0.9578}",Other,2
Eu0.0028La0.9972,5.51,Eu0.0028 La0.9972,"[Element Eu, Element La]","{'Eu': 0.0028, 'La': 0.9972}",Other,2
Eu0.0153La0.9847,1.58,Eu0.0153 La0.9847,"[Element Eu, Element La]","{'Eu': 0.0153, 'La': 0.9847}",Other,2
La0.9974Tb0.0026,5.28,La0.9974 Tb0.0026,"[Element La, Element Tb]","{'La': 0.9974, 'Tb': 0.0026}",Other,2
La0.987Tb0.013,1.38,La0.987 Tb0.013,"[Element La, Element Tb]","{'La': 0.987, 'Tb': 0.013}",Other,2
Er0.005La0.995,5.94,Er0.005 La0.995,"[Element Er, Element La]","{'Er': 0.005, 'La': 0.995}",Other,2
Er0.08La0.92,1.44,Er0.08 La0.92,"[Element Er, Element La]","{'Er': 0.08, 'La': 0.92}",Other,2
K0.1W1O2.9F0.1,2.1,K0.1 W1 O2.9 F0.1,"[Element K, Element W, Element O, Element F]","{'K': 0.1, 'W': 1.0, 'O': 2.9, 'F': 0.1}",Other,4
Cs0.1W1O2.9F0.1,4.4,Cs0.1 W1 O2.9 F0.1,"[Element Cs, Element W, Element O, Element F]","{'Cs': 0.1, 'W': 1.0, 'O': 2.9, 'F': 0.1}",Other,4
Rb0.1W1O2.9F0.1,3.6,Rb0.1 W1 O2.9 F0.1,"[Element Rb, Element W, Element O, Element F]","{'Rb': 0.1, 'W': 1.0, 'O': 2.9, 'F': 0.1}",Other,4
K0.1Li0.02W1O2.88F0.12,1.1,K0.1 Li0.02 W1 O2.88 F0.12,"[Element K, Element Li, Element W, Element O, Element F]","{'K': 0.1, 'Li': 0.02, 'W': 1.0, 'O': 2.88, 'F': 0.12}",Other,5
Rb0.1Li0.02W1O2.88F0.12,3.4,Rb0.1 Li0.02 W1 O2.88 F0.12,"[Element Rb, Element Li, Element W, Element O, Element F]","{'Rb': 0.1, 'Li': 0.02, 'W': 1.0, 'O': 2.88, 'F': 0.12}",Other,5
Rb0.1Li0.05W1O2.85F0.15,3.1,Rb0.1 Li0.05 W1 O2.85 F0.15,"[Element Rb, Element Li, Element W, Element O, Element F]","{'Rb': 0.1, 'Li': 0.05, 'W': 1.0, 'O': 2.85, 'F': 0.15}",Other,5
Rb0.1Li0.1W1O2.8F0.2,2.0,Rb0.1 Li0.1 W1 O2.8 F0.2,"[Element Rb, Element Li, Element W, Element O, Element F]","{'Rb': 0.1, 'Li': 0.1, 'W': 1.0, 'O': 2.8, 'F': 0.2}",Other,5
Cs0.1Li0.02W1O2.88F0.12,4.0,Cs0.1 Li0.02 W1 O2.88 F0.12,"[Element Cs, Element Li, Element W, Element O, Element F]","{'Cs': 0.1, 'Li': 0.02, 'W': 1.0, 'O': 2.88, 'F': 0.12}",Other,5
Cs0.1Li0.05W1O2.85F0.15,3.3,Cs0.1 Li0.05 W1 O2.85 F0.15,"[Element Cs, Element Li, Element W, Element O, Element F]","{'Cs': 0.1, 'Li': 0.05, 'W': 1.0, 'O': 2.85, 'F': 0.15}",Other,5
Cs0.1Li0.1W1O2.8F0.2,2.1,Cs0.1 Li0.1 W1 O2.8 F0.2,"[Element Cs, Element Li, Element W, Element O, Element F]","{'Cs': 0.1, 'Li': 0.1, 'W': 1.0, 'O': 2.8, 'F': 0.2}",Other,5
Mo0.0708Ti0.9292,2.8,Mo0.0708 Ti0.9292,"[Element Mo, Element Ti]","{'Mo': 0.0708, 'Ti': 0.9292}",Other,2
Mo0.0905Ti0.9095,3.05,Mo0.0905 Ti0.9095,"[Element Mo, Element Ti]","{'Mo': 0.0905, 'Ti': 0.9095}",Other,2
Mo0.1215Ti0.8785,3.5,Mo0.1215 Ti0.8785,"[Element Mo, Element Ti]","{'Mo': 0.1215, 'Ti': 0.8785}",Other,2
Mo0.1633Ti0.8367,4.0,Mo0.1633 Ti0.8367,"[Element Mo, Element Ti]","{'Mo': 0.1633, 'Ti': 0.8367}",Other,2
H3.63Th1,8.35,H3.63 Th1,"[Element H, Element Th]","{'H': 3.63, 'Th': 1.0}",Hydrides,2
Ce0.01La0.99,3.63,Ce0.01 La0.99,"[Element Ce, Element La]","{'Ce': 0.01, 'La': 0.99}",Other,2
La0.99Sm0.01,4.5,La0.99 Sm0.01,"[Element La, Element Sm]","{'La': 0.99, 'Sm': 0.01}",Other,2
Eu0.01La0.99,3.79,Eu0.01 La0.99,"[Element Eu, Element La]","{'Eu': 0.01, 'La': 0.99}",Other,2
La0.99Tb0.01,2.53,La0.99 Tb0.01,"[Element La, Element Tb]","{'La': 0.99, 'Tb': 0.01}",Other,2