chemical_formula,Tc,composition,elements,stoichiometry,Category,num_elements
Nb0.75Ti0.25,10.02,Nb0.75 Ti0.25,"[Element Nb, Element Ti]","{'Nb': 0.75, 'Ti': 0.25}",Other,2
Nb0.9Ti0.1,9.61,Nb0.9 Ti0.1,"[Element Nb, Element Ti]","{'Nb': 0.9, 'Ti': 0.1}",Other,2
Nb0.26U0.74,1.85,Nb0.26 U0.74,"[Element Nb, Element U]","{'Nb': 0.26, 'U': 0.74}",Other,2
Nb0.222U0.778,1.98,Nb0.222 U0.778,"[Element Nb, Element U]","{'Nb': 0.222, 'U': 0.778}",Other,2
Nb0.1Ti0.4V0.5,5.3,Nb0.1 Ti0.4 V0.5,"[Element Nb, Element Ti, Element V]","{'Nb': 0.1, 'Ti': 0.4, 'V': 0.5}",Other,3
Nb0.4Ti0.4V0.2,7.6,Nb0.4 Ti0.4 V0.2,"[Element Nb, Element Ti, Element V]","{'Nb': 0.4, 'Ti': 0.4, 'V': 0.2}",Other,3
Nb0.5Ti0.2V0.3,8.5,Nb0.5 Ti0.2 V0.3,"[Element Nb, Element Ti, Element V]","{'Nb': 0.5, 'Ti': 0.2, 'V': 0.3}",Other,3
Ni0.22V0.78,0.35,Ni0.22 V0.78,"[Element Ni, Element V]","{'Ni': 0.22, 'V': 0.78}",Other,2
Ni3Th7,1.98,Ni3 Th7,"[Element Ni, Element Th]","{'Ni': 3.0, 'Th': 7.0}",Other,2
Ni1Ta2,0.9,Ni1 Ta2,"[Element Ni, Element Ta]","{'Ni': 1.0, 'Ta': 2.0}",Other,2
Ni0.05Rh0.04Ti0.91,3.5,Ni0.05 Rh0.04 Ti0.91,"[Element Ni, Element Rh, Element Ti]","{'Ni': 0.05, 'Rh': 0.04, 'Ti': 0.91}",Other,3
O3Tl0.03W1,2.14,O3 Tl0.03 W1,"[Element O, Element Tl, Element W]","{'O': 3.0, 'Tl': 0.03, 'W': 1.0}",Other,3
O1.07Ti1,1.0,O1.07 Ti1,"[Element O, Element Ti]","{'O': 1.07, 'Ti': 1.0}",Other,2
O1Ti1,1.06,O1 Ti1,"[Element O, Element Ti]","{'O': 1.0, 'Ti': 1.0}",Other,2
O3Sr0.08W1,4.0,O3 Sr0.08 W1,"[Element O, Element Sr, Element W]","{'O': 3.0, 'Sr': 0.08, 'W': 1.0}",Other,3
O1Sn1,3.81,O1 Sn1,"[Element O, Element Sn]","{'O': 1.0, 'Sn': 1.0}",Other,2
O0.14Rh0.287Ti0.573,3.37,O0.14 Rh0.287 Ti0.573,"[Element O, Element Rh, Element Ti]","{'O': 0.14, 'Rh': 0.287, 'Ti': 0.573}",Other,3
O1Re1Ti1,5.74,O1 Re1 Ti1,"[Element O, Element Re, Element Ti]","{'O': 1.0, 'Re': 1.0, 'Ti': 1.0}",Other,3
Os1Ti1,0.46,Os1 Ti1,"[Element Os, Element Ti]","{'Os': 1.0, 'Ti': 1.0}",Other,2
Os3Th7,1.51,Os3 Th7,"[Element Os, Element Th]","{'Os': 3.0, 'Th': 7.0}",Other,2
Os1Ta1,1.95,Os1 Ta1,"[Element Os, Element Ta]","{'Os': 1.0, 'Ta': 1.0}",Other,2
Os2Sc1,4.6,Os2 Sc1,"[Element Os, Element Sc]","{'Os': 2.0, 'Sc': 1.0}",Other,2
Os0.05Rh0.04Ti0.91,3.5,Os0.05 Rh0.04 Ti0.91,"[Element Os, Element Rh, Element Ti]","{'Os': 0.05, 'Rh': 0.04, 'Ti': 0.91}",Other,3
Os0.97Rh0.03,0.09,Os0.97 Rh0.03,"[Element Os, Element Rh]","{'Os': 0.97, 'Rh': 0.03}",Other,2
Os0.058Re0.942,1.93,Os0.058 Re0.942,"[Element Os, Element Re]","{'Os': 0.058, 'Re': 0.942}",Other,2
O1W3,3.35,O1 W3,"[Element O, Element W]","{'O': 1.0, 'W': 3.0}",Other,2
O0.03V0.97,2.4,O0.03 V0.97,"[Element O, Element V]","{'O': 0.03, 'V': 0.97}",Other,2
P1Pb1,7.8,P1 Pb1,"[Element P, Element Pb]","{'P': 1.0, 'Pb': 1.0}",Other,2
Os0.075W0.925,0.9,Os0.075 W0.925,"[Element Os, Element W]","{'Os': 0.075, 'W': 0.925}",Other,2
Os0.1W0.9,1.5,Os0.1 W0.9,"[Element Os, Element W]","{'Os': 0.1, 'W': 0.9}",Other,2
Os0.15W0.85,2.2,Os0.15 W0.85,"[Element Os, Element W]","{'Os': 0.15, 'W': 0.85}",Other,2
Os0.25W0.75,3.02,Os0.25 W0.75,"[Element Os, Element W]","{'Os': 0.25, 'W': 0.75}",Other,2
Os0.34W0.66,3.81,Os0.34 W0.66,"[Element Os, Element W]","{'Os': 0.34, 'W': 0.66}",Other,2
Os0.74W0.26,4.4,Os0.74 W0.26,"[Element Os, Element W]","{'Os': 0.74, 'W': 0.26}",Other,2
Os0.5V0.5,5.15,Os0.5 V0.5,"[Element Os, Element V]","{'Os': 0.5, 'V': 0.5}",Other,2
Os0.55V0.45,5.04,Os0.55 V0.45,"[Element Os, Element V]","{'Os': 0.55, 'V': 0.45}",Other,2
Pb1Pt1,7.2,Pb1 Pt1,"[Element Pb, Element Pt]","{'Pb': 1.0, 'Pt': 1.0}",Other,2
Pb0.8Pt0.2,2.8,Pb0.8 Pt0.2,"[Element Pb, Element Pt]","{'Pb': 0.8, 'Pt': 0.2}",Other,2
P1W3,2.76,P1 W3,"[Element P, Element W]","{'P': 1.0, 'W': 3.0}",Other,2
P1Sn1,4.0,P1 Sn1,"[Element P, Element Sn]","{'P': 1.0, 'Sn': 1.0}",Other,2
P0.3Si0.7V3,14.75,P0.3 Si0.7 V3,"[Element P, Element Si, Element V]","{'P': 0.3, 'Si': 0.7, 'V': 3.0}",Other,3
P0.2Si0.8V3,16.6,P0.2 Si0.8 V3,"[Element P, Element Si, Element V]","{'P': 0.2, 'Si': 0.8, 'V': 3.0}",Other,3
Pb3Th1,5.55,Pb3 Th1,"[Element Pb, Element Th]","{'Pb': 3.0, 'Th': 1.0}",Other,2
Pb3Sr1,1.85,Pb3 Sr1,"[Element Pb, Element Sr]","{'Pb': 3.0, 'Sr': 1.0}",Other,2
Pb0.9Sn0.1,7.17,Pb0.9 Sn0.1,"[Element Pb, Element Sn]","{'Pb': 0.9, 'Sn': 0.1}",Other,2
Pb0.01Sn0.99,3.752,Pb0.01 Sn0.99,"[Element Pb, Element Sn]","{'Pb': 0.01, 'Sn': 0.99}",Other,2
Pb0.28Sn0.72,7.05,Pb0.28 Sn0.72,"[Element Pb, Element Sn]","{'Pb': 0.28, 'Sn': 0.72}",Other,2
Pb0.36Sn0.64,7.75,Pb0.36 Sn0.64,"[Element Pb, Element Sn]","{'Pb': 0.36, 'Sn': 0.64}",Other,2
Pb0.57Sn0.43,7.45,Pb0.57 Sn0.43,"[Element Pb, Element Sn]","{'Pb': 0.57, 'Sn': 0.43}",Other,2
Pb0.9Sb0.1,6.28,Pb0.9 Sb0.1,"[Element Pb, Element Sb]","{'Pb': 0.9, 'Sb': 0.1}",Other,2
Pb1Sb1,6.6,Pb1 Sb1,"[Element Pb, Element Sb]","{'Pb': 1.0, 'Sb': 1.0}",Other,2
Pb1S3Ta1,3.11,Pb1 S3 Ta1,"[Element Pb, Element S, Element Ta]","{'Pb': 1.0, 'S': 3.0, 'Ta': 1.0}",Other,3
Pb1.9Rh1,1.32,Pb1.9 Rh1,"[Element Pb, Element Rh]","{'Pb': 1.9, 'Rh': 1.0}",Other,2
Pb2Rh1,2.66,Pb2 Rh1,"[Element Pb, Element Rh]","{'Pb': 2.0, 'Rh': 1.0}",Other,2
Pb1Tl2,4.1,Pb1 Tl2,"[Element Pb, Element Tl]","{'Pb': 1.0, 'Tl': 2.0}",Other,2
Pb0.35Tl0.65,3.8,Pb0.35 Tl0.65,"[Element Pb, Element Tl]","{'Pb': 0.35, 'Tl': 0.65}",Other,2
Pb0.6Tl0.4,5.8,Pb0.6 Tl0.4,"[Element Pb, Element Tl]","{'Pb': 0.6, 'Tl': 0.4}",Other,2
Pb0.73Tl0.27,6.43,Pb0.73 Tl0.27,"[Element Pb, Element Tl]","{'Pb': 0.73, 'Tl': 0.27}",Other,2
Pb0.79Tl0.21,6.43,Pb0.79 Tl0.21,"[Element Pb, Element Tl]","{'Pb': 0.79, 'Tl': 0.21}",Other,2
Pb0.85Tl0.15,6.73,Pb0.85 Tl0.15,"[Element Pb, Element Tl]","{'Pb': 0.85, 'Tl': 0.15}",Other,2
Pb0.89Tl0.11,6.88,Pb0.89 Tl0.11,"[Element Pb, Element Tl]","{'Pb': 0.89, 'Tl': 0.11}",Other,2
Pb0.93Tl0.075,6.98,Pb0.93 Tl0.075,"[Element Pb, Element Tl]","{'Pb': 0.93, 'Tl': 0.075}",Other,2
Pb0.96Tl0.04,7.06,Pb0.96 Tl0.04,"[Element Pb, Element Tl]","{'Pb': 0.96, 'Tl': 0.04}",Other,2
Pt1Th1,0.44,Pt1 Th1,"[Element Pt, Element Th]","{'Pt': 1.0, 'Th': 1.0}",Other,2
Pt5Th1,3.13,Pt5 Th1,"[Element Pt, Element Th]","{'Pt': 5.0, 'Th': 1.0}",Other,2
Pt1Te1,0.59,Pt1 Te1,"[Element Pt, Element Te]","{'Pt': 1.0, 'Te': 1.0}",Other,2
Pt0.15Ta0.85,0.4,Pt0.15 Ta0.85,"[Element Pt, Element Ta]","{'Pt': 0.15, 'Ta': 0.85}",Other,2
Pt0.3Ta0.7,1.45,Pt0.3 Ta0.7,"[Element Pt, Element Ta]","{'Pt': 0.3, 'Ta': 0.7}",Other,2
Pt1Ta1,1.0,Pt1 Ta1,"[Element Pt, Element Ta]","{'Pt': 1.0, 'Ta': 1.0}",Other,2
Pt1Sn1,0.37,Pt1 Sn1,"[Element Pt, Element Sn]","{'Pt': 1.0, 'Sn': 1.0}",Other,2
Pt1Si1,0.88,Pt1 Si1,"[Element Pt, Element Si]","{'Pt': 1.0, 'Si': 1.0}",Other,2
Pt1Sb1,2.1,Pt1 Sb1,"[Element Pt, Element Sb]","{'Pt': 1.0, 'Sb': 1.0}",Other,2
Pt0.05Rh0.04Ti0.91,4.3,Pt0.05 Rh0.04 Ti0.91,"[Element Pt, Element Rh, Element Ti]","{'Pt': 0.05, 'Rh': 0.04, 'Ti': 0.91}",Other,3
Pt0.5W0.5,1.45,Pt0.5 W0.5,"[Element Pt, Element W]","{'Pt': 0.5, 'W': 0.5}",Other,2
Pt0.22V0.78,1.76,Pt0.22 V0.78,"[Element Pt, Element V]","{'Pt': 0.22, 'V': 0.78}",Other,2
Pt1V3,3.62,Pt1 V3,"[Element Pt, Element V]","{'Pt': 1.0, 'V': 3.0}",Other,2
Pt0.017U0.983,0.85,Pt0.017 U0.983,"[Element Pt, Element U]","{'Pt': 0.017, 'U': 0.983}",Other,2
Pt0.02U0.98,0.87,Pt0.02 U0.98,"[Element Pt, Element U]","{'Pt': 0.02, 'U': 0.98}",Other,2
Pt1Tl2,1.58,Pt1 Tl2,"[Element Pt, Element Tl]","{'Pt': 1.0, 'Tl': 2.0}",Other,2
Pt1Ti3,0.58,Pt1 Ti3,"[Element Pt, Element Ti]","{'Pt': 1.0, 'Ti': 3.0}",Other,2
Pt3Th7,0.98,Pt3 Th7,"[Element Pt, Element Th]","{'Pt': 3.0, 'Th': 7.0}",Other,2
Re1Ta1,1.3,Re1 Ta1,"[Element Re, Element Ta]","{'Re': 1.0, 'Ta': 1.0}",Other,2
Re0.65Ta0.35,1.58,Re0.65 Ta0.35,"[Element Re, Element Ta]","{'Re': 0.65, 'Ta': 0.35}",Other,2
Re0.75Ta0.25,6.78,Re0.75 Ta0.25,"[Element Re, Element Ta]","{'Re': 0.75, 'Ta': 0.25}",Other,2
Re0.83Ru0.17,2.23,Re0.83 Ru0.17,"[Element Re, Element Ru]","{'Re': 0.83, 'Ru': 0.17}",Other,2
Re0.05Rh0.04Ti0.91,2.3,Re0.05 Rh0.04 Ti0.91,"[Element Re, Element Rh, Element Ti]","{'Re': 0.05, 'Rh': 0.04, 'Ti': 0.91}",Other,3
Os0.06Re0.94,1.93,Os0.06 Re0.94,"[Element Os, Element Re]","{'Os': 0.06, 'Re': 0.94}",Other,2
Re0.15W0.85,2.4,Re0.15 W0.85,"[Element Re, Element W]","{'Re': 0.15, 'W': 0.85}",Other,2
Re0.25W0.75,4.6,Re0.25 W0.75,"[Element Re, Element W]","{'Re': 0.25, 'W': 0.75}",Other,2
Re0.6W0.4,6.0,Re0.6 W0.4,"[Element Re, Element W]","{'Re': 0.6, 'W': 0.4}",Other,2
Re3W1,9.0,Re3 W1,"[Element Re, Element W]","{'Re': 3.0, 'W': 1.0}",Other,2
Re0.6V0.4,2.2,Re0.6 V0.4,"[Element Re, Element V]","{'Re': 0.6, 'V': 0.4}",Other,2
Re0.76V0.24,4.52,Re0.76 V0.24,"[Element Re, Element V]","{'Re': 0.76, 'V': 0.24}",Other,2
Re0.9V0.1,9.4,Re0.9 V0.1,"[Element Re, Element V]","{'Re': 0.9, 'V': 0.1}",Other,2
Re0.92V0.08,6.8,Re0.92 V0.08,"[Element Re, Element V]","{'Re': 0.92, 'V': 0.08}",Other,2
Re0.83Ti0.17,9.0,Re0.83 Ti0.17,"[Element Re, Element Ti]","{'Re': 0.83, 'Ti': 0.17}",Other,2
Re24Ti5,6.6,Re24 Ti5,"[Element Re, Element Ti]","{'Re': 24.0, 'Ti': 5.0}",Other,2
Re2Th1,5.05,Re2 Th1,"[Element Re, Element Th]","{'Re': 2.0, 'Th': 1.0}",Other,2
Rh0.53Se0.47,6.0,Rh0.53 Se0.47,"[Element Rh, Element Se]","{'Rh': 0.53, 'Se': 0.47}",Other,2
Rh0.04Sc0.05Ti0.91,1.3,Rh0.04 Sc0.05 Ti0.91,"[Element Rh, Element Sc, Element Ti]","{'Rh': 0.04, 'Sc': 0.05, 'Ti': 0.91}",Other,3
Rh0.24Sc0.76,0.92,Rh0.24 Sc0.76,"[Element Rh, Element Sc]","{'Rh': 0.24, 'Sc': 0.76}",Other,2
Rh17S15,5.8,Rh17 S15,"[Element Rh, Element S]","{'Rh': 17.0, 'S': 15.0}",Other,2
Rh0.04Ru0.05Ti0.91,3.5,Rh0.04 Ru0.05 Ti0.91,"[Element Rh, Element Ru, Element Ti]","{'Rh': 0.04, 'Ru': 0.05, 'Ti': 0.91}",Other,3
Re0.5W0.5,8.1,Re0.5 W0.5,"[Element Re, Element W]","{'Re': 0.5, 'W': 0.5}",Other,2
Re0.73W0.27,8.3,Re0.73 W0.27,"[Element Re, Element W]","{'Re': 0.73, 'W': 0.27}",Other,2
Rh3Th7,2.15,Rh3 Th7,"[Element Rh, Element Th]","{'Rh': 3.0, 'Th': 7.0}",Other,2
Rh1Th1,0.36,Rh1 Th1,"[Element Rh, Element Th]","{'Rh': 1.0, 'Th': 1.0}",Other,2
Rh5Th1,1.07,Rh5 Th1,"[Element Rh, Element Th]","{'Rh': 5.0, 'Th': 1.0}",Other,2
Rh0.67Te0.33,0.49,Rh0.67 Te0.33,"[Element Rh, Element Te]","{'Rh': 0.67, 'Te': 0.33}",Other,2
Rh1Te2,1.51,Rh1 Te2,"[Element Rh, Element Te]","{'Rh': 1.0, 'Te': 2.0}",Other,2
Rh0.04Ta0.05Ti0.91,2.3,Rh0.04 Ta0.05 Ti0.91,"[Element Rh, Element Ta, Element Ti]","{'Rh': 0.04, 'Ta': 0.05, 'Ti': 0.91}",Other,3
Rh0.33Ta0.66,7.0,Rh0.33 Ta0.66,"[Element Rh, Element Ta]","{'Rh': 0.33, 'Ta': 0.66}",Other,2
Rh0.4Ta0.6,2.35,Rh0.4 Ta0.6,"[Element Rh, Element Ta]","{'Rh': 0.4, 'Ta': 0.6}",Other,2
Rh1Ta1,2.0,Rh1 Ta1,"[Element Rh, Element Ta]","{'Rh': 1.0, 'Ta': 1.0}",Other,2
Rh2Sr1,6.2,Rh2 Sr1,"[Element Rh, Element Sr]","{'Rh': 2.0, 'Sr': 1.0}",Other,2
Rh1Sn2,0.6,Rh1 Sn2,"[Element Rh, Element Sn]","{'Rh': 1.0, 'Sn': 2.0}",Other,2
Rh0.36Se0.64,6.0,Rh0.36 Se0.64,"[Element Rh, Element Se]","{'Rh': 0.36, 'Se': 0.64}",Other,2
Rh0.02U0.98,0.96,Rh0.02 U0.98,"[Element Rh, Element U]","{'Rh': 0.02, 'U': 0.98}",Other,2
Rh0.91Ti0.4W0.05,3.4,Rh0.91 Ti0.4 W0.05,"[Element Rh, Element Ti, Element W]","{'Rh': 0.91, 'Ti': 0.4, 'W': 0.05}",Other,3
Rh0.91Ti0.4V0.05,2.9,Rh0.91 Ti0.4 V0.05,"[Element Rh, Element Ti, Element V]","{'Rh': 0.91, 'Ti': 0.4, 'V': 0.05}",Other,3
Rh0.04Ti0.96,2.0,Rh0.04 Ti0.96,"[Element Rh, Element Ti]","{'Rh': 0.04, 'Ti': 0.96}",Other,2
Rh0.06Ti0.94,2.6,Rh0.06 Ti0.94,"[Element Rh, Element Ti]","{'Rh': 0.06, 'Ti': 0.94}",Other,2
Rh0.08Ti0.92,3.5,Rh0.08 Ti0.92,"[Element Rh, Element Ti]","{'Rh': 0.08, 'Ti': 0.92}",Other,2
Rh0.1Ti0.9,4.0,Rh0.1 Ti0.9,"[Element Rh, Element Ti]","{'Rh': 0.1, 'Ti': 0.9}",Other,2
Rh0.12Ti0.88,4.0,Rh0.12 Ti0.88,"[Element Rh, Element Ti]","{'Rh': 0.12, 'Ti': 0.88}",Other,2
Rh0.88Ti0.12,4.0,Rh0.88 Ti0.12,"[Element Rh, Element Ti]","{'Rh': 0.88, 'Ti': 0.12}",Other,2
Rh0.91Ti0.09,2.0,Rh0.91 Ti0.09,"[Element Rh, Element Ti]","{'Rh': 0.91, 'Ti': 0.09}",Other,2
Rh0.3W0.7,7.3,Rh0.3 W0.7,"[Element Rh, Element W]","{'Rh': 0.3, 'W': 0.7}",Other,2
Rh1W1,3.37,Rh1 W1,"[Element Rh, Element W]","{'Rh': 1.0, 'W': 1.0}",Other,2
Rh0.35V0.65,1.075,Rh0.35 V0.65,"[Element Rh, Element V]","{'Rh': 0.35, 'V': 0.65}",Other,2
Ru0.46V0.54,5.0,Ru0.46 V0.54,"[Element Ru, Element V]","{'Ru': 0.46, 'V': 0.54}",Other,2
Ru1Ti1,1.07,Ru1 Ti1,"[Element Ru, Element Ti]","{'Ru': 1.0, 'Ti': 1.0}",Other,2
Ru2Th1,3.56,Ru2 Th1,"[Element Ru, Element Th]","{'Ru': 2.0, 'Th': 1.0}",Other,2
Ru2Sc1,2.24,Ru2 Sc1,"[Element Ru, Element Sc]","{'Ru': 2.0, 'Sc': 1.0}",Other,2
Ru0.4W0.6,5.0,Ru0.4 W0.6,"[Element Ru, Element W]","{'Ru': 0.4, 'W': 0.6}",Other,2
Ru0.5W0.5,5.7,Ru0.5 W0.5,"[Element Ru, Element W]","{'Ru': 0.5, 'W': 0.5}",Other,2
Ru1W1,7.5,Ru1 W1,"[Element Ru, Element W]","{'Ru': 1.0, 'W': 1.0}",Other,2
Ru0.58W0.42,5.2,Ru0.58 W0.42,"[Element Ru, Element W]","{'Ru': 0.58, 'W': 0.42}",Other,2
Ru0.4V0.6,1.0,Ru0.4 V0.6,"[Element Ru, Element V]","{'Ru': 0.4, 'V': 0.6}",Other,2
Ru0.45V0.55,4.0,Ru0.45 V0.55,"[Element Ru, Element V]","{'Ru': 0.45, 'V': 0.55}",Other,2
Ru0.452V0.548,4.2,Ru0.452 V0.548,"[Element Ru, Element V]","{'Ru': 0.452, 'V': 0.548}",Other,2
Sb0.05Sn0.95,3.75,Sb0.05 Sn0.95,"[Element Sb, Element Sn]","{'Sb': 0.05, 'Sn': 0.95}",Other,2
Sb0.4Sn0.6,3.8,Sb0.4 Sn0.6,"[Element Sb, Element Sn]","{'Sb': 0.4, 'Sn': 0.6}",Other,2
Sb1Sn1,1.56,Sb1 Sn1,"[Element Sb, Element Sn]","{'Sb': 1.0, 'Sn': 1.0}",Other,2
Sb0.7Sn0.3,2.85,Sb0.7 Sn0.3,"[Element Sb, Element Sn]","{'Sb': 0.7, 'Sn': 0.3}",Other,2
S3Sn1Ta1,2.96,S3 Sn1 Ta1,"[Element S, Element Sn, Element Ta]","{'S': 3.0, 'Sn': 1.0, 'Ta': 1.0}",Other,3
S0.8Se1.2Ta1,3.9,S0.8 Se1.2 Ta1,"[Element S, Element Se, Element Ta]","{'S': 0.8, 'Se': 1.2, 'Ta': 1.0}",Other,3
Sb0.03V0.97,2.63,Sb0.03 V0.97,"[Element Sb, Element V]","{'Sb': 0.03, 'V': 0.97}",Other,2
Sb1V3,0.8,Sb1 V3,"[Element Sb, Element V]","{'Sb': 1.0, 'V': 3.0}",Other,2
Sb0.28Tl0.72,5.2,Sb0.28 Tl0.72,"[Element Sb, Element Tl]","{'Sb': 0.28, 'Tl': 0.72}",Other,2
Sb0.66Tl0.33,5.2,Sb0.66 Tl0.33,"[Element Sb, Element Tl]","{'Sb': 0.66, 'Tl': 0.33}",Other,2
Sb0.25Ti0.75,7.2,Sb0.25 Ti0.75,"[Element Sb, Element Ti]","{'Sb': 0.25, 'Ti': 0.75}",Other,2
Sb1Ta3,0.72,Sb1 Ta3,"[Element Sb, Element Ta]","{'Sb': 1.0, 'Ta': 3.0}",Other,2
Sb0.011Sn0.989,3.642,Sb0.011 Sn0.989,"[Element Sb, Element Sn]","{'Sb': 0.011, 'Sn': 0.989}",Other,2
Si0.25V0.75,16.86,Si0.25 V0.75,"[Element Si, Element V]","{'Si': 0.25, 'V': 0.75}",Other,2
Si0.263V0.737,15.8,Si0.263 V0.737,"[Element Si, Element V]","{'Si': 0.263, 'V': 0.737}",Other,2
Si0.3V0.7,16.95,Si0.3 V0.7,"[Element Si, Element V]","{'Si': 0.3, 'V': 0.7}",Other,2
Si1Ti0.15V2.85,14.55,Si1 Ti0.15 V2.85,"[Element Si, Element Ti, Element V]","{'Si': 1.0, 'Ti': 0.15, 'V': 2.85}",Other,3
Si2Th1,2.41,Si2 Th1,"[Element Si, Element Th]","{'Si': 2.0, 'Th': 1.0}",Other,2
Si3Sr2,0.55,Si3 Sr2,"[Element Si, Element Sr]","{'Si': 3.0, 'Sr': 2.0}",Other,2
Sn0.35Te0.65,1.9,Sn0.35 Te0.65,"[Element Sn, Element Te]","{'Sn': 0.35, 'Te': 0.65}",Other,2
Sn0.25Ta0.5V0.25,3.7,Sn0.25 Ta0.5 V0.25,"[Element Sn, Element Ta, Element V]","{'Sn': 0.25, 'Ta': 0.5, 'V': 0.25}",Other,3
Sn0.25Ta0.25V0.5,2.8,Sn0.25 Ta0.25 V0.5,"[Element Sn, Element Ta, Element V]","{'Sn': 0.25, 'Ta': 0.25, 'V': 0.5}",Other,3
Sn1Ta3,6.4,Sn1 Ta3,"[Element Sn, Element Ta]","{'Sn': 1.0, 'Ta': 3.0}",Other,2
Si0.4W0.6,2.84,Si0.4 W0.6,"[Element Si, Element W]","{'Si': 0.4, 'W': 0.6}",Other,2
Si0.22V0.78,14.38,Si0.22 V0.78,"[Element Si, Element V]","{'Si': 0.22, 'V': 0.78}",Other,2
Si0.2V0.8,7.51,Si0.2 V0.8,"[Element Si, Element V]","{'Si': 0.2, 'V': 0.8}",Other,2
Si0.206V0.794,14.5,Si0.206 V0.794,"[Element Si, Element V]","{'Si': 0.206, 'V': 0.794}",Other,2
Ta0.25V0.75,2.8,Ta0.25 V0.75,"[Element Ta, Element V]","{'Ta': 0.25, 'V': 0.75}",Other,2
Ta0.5V0.5,2.35,Ta0.5 V0.5,"[Element Ta, Element V]","{'Ta': 0.5, 'V': 0.5}",Other,2
Ta0.75V0.25,2.65,Ta0.75 V0.25,"[Element Ta, Element V]","{'Ta': 0.75, 'V': 0.25}",Other,2
Ta0.52Ti0.48,7.86,Ta0.52 Ti0.48,"[Element Ta, Element Ti]","{'Ta': 0.52, 'Ti': 0.48}",Other,2
Sn1V3,7.0,Sn1 V3,"[Element Sn, Element V]","{'Sn': 1.0, 'V': 3.0}",Other,2
Sn3Th1,3.33,Sn3 Th1,"[Element Sn, Element Th]","{'Sn': 3.0, 'Th': 1.0}",Other,2
Sn0.25Te0.75,1.7,Sn0.25 Te0.75,"[Element Sn, Element Te]","{'Sn': 0.25, 'Te': 0.75}",Other,2
Tc0.1V0.9,1.5,Tc0.1 V0.9,"[Element Tc, Element V]","{'Tc': 0.1, 'V': 0.9}",Other,2
Tc0.6V0.4,4.17,Tc0.6 V0.4,"[Element Tc, Element V]","{'Tc': 0.6, 'V': 0.4}",Other,2
Tc0.65V0.35,4.49,Tc0.65 V0.35,"[Element Tc, Element V]","{'Tc': 0.65, 'V': 0.35}",Other,2
Tc0.7V0.3,6.41,Tc0.7 V0.3,"[Element Tc, Element V]","{'Tc': 0.7, 'V': 0.3}",Other,2
Tc0.75V0.25,11.07,Tc0.75 V0.25,"[Element Tc, Element V]","{'Tc': 0.75, 'V': 0.25}",Other,2
Tc0.8V0.2,11.24,Tc0.8 V0.2,"[Element Tc, Element V]","{'Tc': 0.8, 'V': 0.2}",Other,2
Tc0.9V0.1,11.32,Tc0.9 V0.1,"[Element Tc, Element V]","{'Tc': 0.9, 'V': 0.1}",Other,2
Tc0.95V0.05,10.99,Tc0.95 V0.05,"[Element Tc, Element V]","{'Tc': 0.95, 'V': 0.05}",Other,2
Tc0.44Th0.56,5.3,Tc0.44 Th0.56,"[Element Tc, Element Th]","{'Tc': 0.44, 'Th': 0.56}",Other,2
Ti0.975V0.025,1.4,Ti0.975 V0.025,"[Element Ti, Element V]","{'Ti': 0.975, 'V': 0.025}",Other,2
Th1U0.001,0.785,Th1 U0.001,"[Element Th, Element U]","{'Th': 1.0, 'U': 0.001}",Other,2
Th1Tl3,0.87,Th1 Tl3,"[Element Th, Element Tl]","{'Th': 1.0, 'Tl': 3.0}",Other,2
Tc0.9W0.1,10.4,Tc0.9 W0.1,"[Element Tc, Element W]","{'Tc': 0.9, 'W': 0.1}",Other,2
Ti0.013V0.987,12.8,Ti0.013 V0.987,"[Element Ti, Element V]","{'Ti': 0.013, 'V': 0.987}",Other,2
Ti0.42V0.58,7.52,Ti0.42 V0.58,"[Element Ti, Element V]","{'Ti': 0.42, 'V': 0.58}",Other,2
Ti1V1,6.09,Ti1 V1,"[Element Ti, Element V]","{'Ti': 1.0, 'V': 1.0}",Other,2
Ti0.516V0.484,7.2,Ti0.516 V0.484,"[Element Ti, Element V]","{'Ti': 0.516, 'V': 0.484}",Other,2
Ti0.6V0.4,7.0,Ti0.6 V0.4,"[Element Ti, Element V]","{'Ti': 0.6, 'V': 0.4}",Other,2
Ti0.615V0.385,7.07,Ti0.615 V0.385,"[Element Ti, Element V]","{'Ti': 0.615, 'V': 0.385}",Other,2
Ti0.7V0.3,6.14,Ti0.7 V0.3,"[Element Ti, Element V]","{'Ti': 0.7, 'V': 0.3}",Other,2
Ti0.75V0.25,5.3,Ti0.75 V0.25,"[Element Ti, Element V]","{'Ti': 0.75, 'V': 0.25}",Other,2
Ti0.76V0.24,4.382,Ti0.76 V0.24,"[Element Ti, Element V]","{'Ti': 0.76, 'V': 0.24}",Other,2
Ti0.775V0.225,4.7,Ti0.775 V0.225,"[Element Ti, Element V]","{'Ti': 0.775, 'V': 0.225}",Other,2
Ti0.9V0.1,6.3,Ti0.9 V0.1,"[Element Ti, Element V]","{'Ti': 0.9, 'V': 0.1}",Other,2
Ti0.96V0.04,2.7,Ti0.96 V0.04,"[Element Ti, Element V]","{'Ti': 0.96, 'V': 0.04}",Other,2
Mg0.93Pb0.07,0.013,Mg0.93 Pb0.07,"[Element Mg, Element Pb]","{'Mg': 0.93, 'Pb': 0.07}",Other,2
N0.34Re1,5.0,N0.34 Re1,"[Element N, Element Re]","{'N': 0.34, 'Re': 1.0}",Other,2
N1Ta1,4.84,N1 Ta1,"[Element N, Element Ta]","{'N': 1.0, 'Ta': 1.0}",Other,2
Nb1P1S1,12.5,Nb1 P1 S1,"[Element Nb, Element P, Element S]","{'Nb': 1.0, 'P': 1.0, 'S': 1.0}",Other,3
Nb3Sb1,2.2,Nb3 Sb1,"[Element Nb, Element Sb]","{'Nb': 3.0, 'Sb': 1.0}",Other,2
Nb0.71Sn0.29,18.3,Nb0.71 Sn0.29,"[Element Nb, Element Sn]","{'Nb': 0.71, 'Sn': 0.29}",Other,2
Nb0.75Si0.25,9.0,Nb0.75 Si0.25,"[Element Nb, Element Si]","{'Nb': 0.75, 'Si': 0.25}",Other,2
Nb0.79Si0.21,9.3,Nb0.79 Si0.21,"[Element Nb, Element Si]","{'Nb': 0.79, 'Si': 0.21}",Other,2
Ru0.465V0.535,5.8,Ru0.465 V0.535,"[Element Ru, Element V]","{'Ru': 0.465, 'V': 0.535}",Other,2
Sn0.1Tl0.9,3.5,Sn0.1 Tl0.9,"[Element Sn, Element Tl]","{'Sn': 0.1, 'Tl': 0.9}",Other,2
Sn0.65Tl0.35,7.1,Sn0.65 Tl0.35,"[Element Sn, Element Tl]","{'Sn': 0.65, 'Tl': 0.35}",Other,2
B1Ta2,3.12,B1 Ta2,"[Element B, Element Ta]","{'B': 1.0, 'Ta': 2.0}",Other,2
B1Mo1,0.5,B1 Mo1,"[Element B, Element Mo]","{'B': 1.0, 'Mo': 1.0}",Other,2
Si1Ta1,4.28,Si1 Ta1,"[Element Si, Element Ta]","{'Si': 1.0, 'Ta': 1.0}",Other,2
Ge0.7Mo1,1.2,Ge0.7 Mo1,"[Element Ge, Element Mo]","{'Ge': 0.7, 'Mo': 1.0}",Other,2
Si2W3,2.84,Si2 W3,"[Element Si, Element W]","{'Si': 2.0, 'W': 3.0}",Other,2
Mo1Si0.7,1.34,Mo1 Si0.7,"[Element Mo, Element Si]","{'Mo': 1.0, 'Si': 0.7}",Other,2
C1Fe3,1.3,C1 Fe3,"[Element C, Element Fe]","{'C': 1.0, 'Fe': 3.0}",Fe-based,2
Co0.44Mo0.56,13.0,Co0.44 Mo0.56,"[Element Co, Element Mo]","{'Co': 0.44, 'Mo': 0.56}",Other,2
Ge2Rh5,2.12,Ge2 Rh5,"[Element Ge, Element Rh]","{'Ge': 2.0, 'Rh': 5.0}",Other,2
Rh1Se1.75,6.0,Rh1 Se1.75,"[Element Rh, Element Se]","{'Rh': 1.0, 'Se': 1.75}",Other,2