chemical_formula,Tc,composition,elements,stoichiometry,Category,num_elements
Er0.88Ca0.12Ba2Cu2.28Co0.18O6.93,77.5,Er0.88 Ca0.12 Ba2 Cu2.28 Co0.18 O6.93,"[Element Er, Element Ca, Element Ba, Element Cu, Element Co, Element O]","{'Er': 0.88, 'Ca': 0.12, 'Ba': 2.0, 'Cu': 2.28, 'Co': 0.18, 'O': 6.93}",Cuprates,6
Pr1Ba2Cu3O7,90.0,Pr1 Ba2 Cu3 O7,"[Element Pr, Element Ba, Element Cu, Element O]","{'Pr': 1.0, 'Ba': 2.0, 'Cu': 3.0, 'O': 7.0}",Cuprates,4
Sr2Ca1Cu2F1O5,69.1,Sr2 Ca1 Cu2 F1 O5,"[Element Sr, Element Ca, Element Cu, Element F, Element O]","{'Sr': 2.0, 'Ca': 1.0, 'Cu': 2.0, 'F': 1.0, 'O': 5.0}",Cuprates,5
Sr0.4Ca13.6Cu24O41.84,10.0,Sr0.4 Ca13.6 Cu24 O41.84,"[Element Sr, Element Ca, Element Cu, Element O]","{'Sr': 0.4, 'Ca': 13.6, 'Cu': 24.0, 'O': 41.84}",Cuprates,4
La1.8Sr0.2Ca1Cu2O5.96,54.0,La1.8 Sr0.2 Ca1 Cu2 O5.96,"[Element La, Element Sr, Element Ca, Element Cu, Element O]","{'La': 1.8, 'Sr': 0.2, 'Ca': 1.0, 'Cu': 2.0, 'O': 5.96}",Cuprates,5
La1.8Sr0.2Ca1Cu2O5.98,60.0,La1.8 Sr0.2 Ca1 Cu2 O5.98,"[Element La, Element Sr, Element Ca, Element Cu, Element O]","{'La': 1.8, 'Sr': 0.2, 'Ca': 1.0, 'Cu': 2.0, 'O': 5.98}",Cuprates,5
Sr2Cu1C0.96B0.04O5,7.0,Sr2 Cu1 C0.96 B0.04 O5,"[Element Sr, Element Cu, Element C, Element B, Element O]","{'Sr': 2.0, 'Cu': 1.0, 'C': 0.96, 'B': 0.04, 'O': 5.0}",Cuprates,5
Sr2Cu1C0.95B0.05O5,12.5,Sr2 Cu1 C0.95 B0.05 O5,"[Element Sr, Element Cu, Element C, Element B, Element O]","{'Sr': 2.0, 'Cu': 1.0, 'C': 0.95, 'B': 0.05, 'O': 5.0}",Cuprates,5
Sr2Cu1C0.94B0.06O5,21.0,Sr2 Cu1 C0.94 B0.06 O5,"[Element Sr, Element Cu, Element C, Element B, Element O]","{'Sr': 2.0, 'Cu': 1.0, 'C': 0.94, 'B': 0.06, 'O': 5.0}",Cuprates,5
Sr2Cu1C0.93B0.07O5,23.0,Sr2 Cu1 C0.93 B0.07 O5,"[Element Sr, Element Cu, Element C, Element B, Element O]","{'Sr': 2.0, 'Cu': 1.0, 'C': 0.93, 'B': 0.07, 'O': 5.0}",Cuprates,5
Sr2Cu1C0.92B0.08O5,25.0,Sr2 Cu1 C0.92 B0.08 O5,"[Element Sr, Element Cu, Element C, Element B, Element O]","{'Sr': 2.0, 'Cu': 1.0, 'C': 0.92, 'B': 0.08, 'O': 5.0}",Cuprates,5
Sr2Cu1C0.91B0.09O5,26.5,Sr2 Cu1 C0.91 B0.09 O5,"[Element Sr, Element Cu, Element C, Element B, Element O]","{'Sr': 2.0, 'Cu': 1.0, 'C': 0.91, 'B': 0.09, 'O': 5.0}",Cuprates,5
Sr2Cu1C0.82B0.12O5,30.0,Sr2 Cu1 C0.82 B0.12 O5,"[Element Sr, Element Cu, Element C, Element B, Element O]","{'Sr': 2.0, 'Cu': 1.0, 'C': 0.82, 'B': 0.12, 'O': 5.0}",Cuprates,5
Sr2Cu1C0.86B0.14O5,31.0,Sr2 Cu1 C0.86 B0.14 O5,"[Element Sr, Element Cu, Element C, Element B, Element O]","{'Sr': 2.0, 'Cu': 1.0, 'C': 0.86, 'B': 0.14, 'O': 5.0}",Cuprates,5
Tl3Cr1Sr8Cu4O20,25.0,Tl3 Cr1 Sr8 Cu4 O20,"[Element Tl, Element Cr, Element Sr, Element Cu, Element O]","{'Tl': 3.0, 'Cr': 1.0, 'Sr': 8.0, 'Cu': 4.0, 'O': 20.0}",Cuprates,5
Ca2Nb1O4,8.9,Ca2 Nb1 O4,"[Element Ca, Element Nb, Element O]","{'Ca': 2.0, 'Nb': 1.0, 'O': 4.0}",Other,3
Hg1Ba2Cu1O4.025,20.0,Hg1 Ba2 Cu1 O4.025,"[Element Hg, Element Ba, Element Cu, Element O]","{'Hg': 1.0, 'Ba': 2.0, 'Cu': 1.0, 'O': 4.025}",Cuprates,4
Hg1Ba2Cu1O4.045,73.0,Hg1 Ba2 Cu1 O4.045,"[Element Hg, Element Ba, Element Cu, Element O]","{'Hg': 1.0, 'Ba': 2.0, 'Cu': 1.0, 'O': 4.045}",Cuprates,4
Hg1Ba2Cu1O4.055,80.0,Hg1 Ba2 Cu1 O4.055,"[Element Hg, Element Ba, Element Cu, Element O]","{'Hg': 1.0, 'Ba': 2.0, 'Cu': 1.0, 'O': 4.055}",Cuprates,4
Hg1Ba2Cu1O4.085,92.0,Hg1 Ba2 Cu1 O4.085,"[Element Hg, Element Ba, Element Cu, Element O]","{'Hg': 1.0, 'Ba': 2.0, 'Cu': 1.0, 'O': 4.085}",Cuprates,4
Hg1Ba2Cu1O4.13,60.0,Hg1 Ba2 Cu1 O4.13,"[Element Hg, Element Ba, Element Cu, Element O]","{'Hg': 1.0, 'Ba': 2.0, 'Cu': 1.0, 'O': 4.13}",Cuprates,4
Hg1Ba2Cu1O6.932,50.0,Hg1 Ba2 Cu1 O6.932,"[Element Hg, Element Ba, Element Cu, Element O]","{'Hg': 1.0, 'Ba': 2.0, 'Cu': 1.0, 'O': 6.932}",Cuprates,4
Ca1.88Na0.12Cu1Cl2O2,7.2,Ca1.88 Na0.12 Cu1 Cl2 O2,"[Element Ca, Element Na, Element Cu, Element Cl, Element O]","{'Ca': 1.88, 'Na': 0.12, 'Cu': 1.0, 'Cl': 2.0, 'O': 2.0}",Cuprates,5
Ca1.84Na0.16Cu1Cl2O2,19.7,Ca1.84 Na0.16 Cu1 Cl2 O2,"[Element Ca, Element Na, Element Cu, Element Cl, Element O]","{'Ca': 1.84, 'Na': 0.16, 'Cu': 1.0, 'Cl': 2.0, 'O': 2.0}",Cuprates,5
Ca1.76Na0.24Cu1Cl2O2,26.9,Ca1.76 Na0.24 Cu1 Cl2 O2,"[Element Ca, Element Na, Element Cu, Element Cl, Element O]","{'Ca': 1.76, 'Na': 0.24, 'Cu': 1.0, 'Cl': 2.0, 'O': 2.0}",Cuprates,5
Ca1.7Na0.3Cu1Cl2O2,27.5,Ca1.7 Na0.3 Cu1 Cl2 O2,"[Element Ca, Element Na, Element Cu, Element Cl, Element O]","{'Ca': 1.7, 'Na': 0.3, 'Cu': 1.0, 'Cl': 2.0, 'O': 2.0}",Cuprates,5
Ca1.6Na0.4Cu1Cl2O2,27.8,Ca1.6 Na0.4 Cu1 Cl2 O2,"[Element Ca, Element Na, Element Cu, Element Cl, Element O]","{'Ca': 1.6, 'Na': 0.4, 'Cu': 1.0, 'Cl': 2.0, 'O': 2.0}",Cuprates,5
Ca1.5Na0.5Cu1Cl2O2,28.5,Ca1.5 Na0.5 Cu1 Cl2 O2,"[Element Ca, Element Na, Element Cu, Element Cl, Element O]","{'Ca': 1.5, 'Na': 0.5, 'Cu': 1.0, 'Cl': 2.0, 'O': 2.0}",Cuprates,5
Hg1Ba2Ca3Cu4O1,115.0,Hg1 Ba2 Ca3 Cu4 O1,"[Element Hg, Element Ba, Element Ca, Element Cu, Element O]","{'Hg': 1.0, 'Ba': 2.0, 'Ca': 3.0, 'Cu': 4.0, 'O': 1.0}",Cuprates,5
Hg1Ba2Ca3Cu4O2,115.0,Hg1 Ba2 Ca3 Cu4 O2,"[Element Hg, Element Ba, Element Ca, Element Cu, Element O]","{'Hg': 1.0, 'Ba': 2.0, 'Ca': 3.0, 'Cu': 4.0, 'O': 2.0}",Cuprates,5
Bi2Sr2Ca1Cu2O8.25,68.2,Bi2 Sr2 Ca1 Cu2 O8.25,"[Element Bi, Element Sr, Element Ca, Element Cu, Element O]","{'Bi': 2.0, 'Sr': 2.0, 'Ca': 1.0, 'Cu': 2.0, 'O': 8.25}",Cuprates,5
Hg0.7Cr0.3Sr2Cu1O4.6,53.0,Hg0.7 Cr0.3 Sr2 Cu1 O4.6,"[Element Hg, Element Cr, Element Sr, Element Cu, Element O]","{'Hg': 0.7, 'Cr': 0.3, 'Sr': 2.0, 'Cu': 1.0, 'O': 4.6}",Cuprates,5
Bi1.6Pb0.4Sr2Ca2Cu3O10.11,105.3,Bi1.6 Pb0.4 Sr2 Ca2 Cu3 O10.11,"[Element Bi, Element Pb, Element Sr, Element Ca, Element Cu, Element O]","{'Bi': 1.6, 'Pb': 0.4, 'Sr': 2.0, 'Ca': 2.0, 'Cu': 3.0, 'O': 10.11}",Cuprates,6
Bi1.6Pb0.35V0.05Sr2Ca2Cu3O10.12,103.7,Bi1.6 Pb0.35 V0.05 Sr2 Ca2 Cu3 O10.12,"[Element Bi, Element Pb, Element V, Element Sr, Element Ca, Element Cu, Element O]","{'Bi': 1.6, 'Pb': 0.35, 'V': 0.05, 'Sr': 2.0, 'Ca': 2.0, 'Cu': 3.0, 'O': 10.12}",Cuprates,7
Bi1.6Pb0.3Sr2Ca2Cu3V0.1O10.12,102.5,Bi1.6 Pb0.3 Sr2 Ca2 Cu3 V0.1 O10.12,"[Element Bi, Element Pb, Element Sr, Element Ca, Element Cu, Element V, Element O]","{'Bi': 1.6, 'Pb': 0.3, 'Sr': 2.0, 'Ca': 2.0, 'Cu': 3.0, 'V': 0.1, 'O': 10.12}",Cuprates,7
Bi0.16Pb0.4Sr2Ca2Cu3O10.11,105.3,Bi0.16 Pb0.4 Sr2 Ca2 Cu3 O10.11,"[Element Bi, Element Pb, Element Sr, Element Ca, Element Cu, Element O]","{'Bi': 0.16, 'Pb': 0.4, 'Sr': 2.0, 'Ca': 2.0, 'Cu': 3.0, 'O': 10.11}",Cuprates,6
Bi0.16Pb0.35V0.05Sr2Ca2Cu3O10.12,103.7,Bi0.16 Pb0.35 V0.05 Sr2 Ca2 Cu3 O10.12,"[Element Bi, Element Pb, Element V, Element Sr, Element Ca, Element Cu, Element O]","{'Bi': 0.16, 'Pb': 0.35, 'V': 0.05, 'Sr': 2.0, 'Ca': 2.0, 'Cu': 3.0, 'O': 10.12}",Cuprates,7
Bi0.16Pb0.3V0.1Sr2Ca2Cu3O10.12,102.5,Bi0.16 Pb0.3 V0.1 Sr2 Ca2 Cu3 O10.12,"[Element Bi, Element Pb, Element V, Element Sr, Element Ca, Element Cu, Element O]","{'Bi': 0.16, 'Pb': 0.3, 'V': 0.1, 'Sr': 2.0, 'Ca': 2.0, 'Cu': 3.0, 'O': 10.12}",Cuprates,7
Tm0.99Ca0.01Ba2Cu4O8,79.2,Tm0.99 Ca0.01 Ba2 Cu4 O8,"[Element Tm, Element Ca, Element Ba, Element Cu, Element O]","{'Tm': 0.99, 'Ca': 0.01, 'Ba': 2.0, 'Cu': 4.0, 'O': 8.0}",Cuprates,5
Tm0.97Ca0.03Ba2Cu4O8,81.2,Tm0.97 Ca0.03 Ba2 Cu4 O8,"[Element Tm, Element Ca, Element Ba, Element Cu, Element O]","{'Tm': 0.97, 'Ca': 0.03, 'Ba': 2.0, 'Cu': 4.0, 'O': 8.0}",Cuprates,5
Tm0.95Ca0.05Ba2Cu4O8,84.8,Tm0.95 Ca0.05 Ba2 Cu4 O8,"[Element Tm, Element Ca, Element Ba, Element Cu, Element O]","{'Tm': 0.95, 'Ca': 0.05, 'Ba': 2.0, 'Cu': 4.0, 'O': 8.0}",Cuprates,5
Tm0.93Ca0.07Ba2Cu4O8,83.3,Tm0.93 Ca0.07 Ba2 Cu4 O8,"[Element Tm, Element Ca, Element Ba, Element Cu, Element O]","{'Tm': 0.93, 'Ca': 0.07, 'Ba': 2.0, 'Cu': 4.0, 'O': 8.0}",Cuprates,5
Er0.99Ca0.01Ba2Cu4O8,79.3,Er0.99 Ca0.01 Ba2 Cu4 O8,"[Element Er, Element Ca, Element Ba, Element Cu, Element O]","{'Er': 0.99, 'Ca': 0.01, 'Ba': 2.0, 'Cu': 4.0, 'O': 8.0}",Cuprates,5
Er0.97Ca0.03Ba2Cu4O8,80.0,Er0.97 Ca0.03 Ba2 Cu4 O8,"[Element Er, Element Ca, Element Ba, Element Cu, Element O]","{'Er': 0.97, 'Ca': 0.03, 'Ba': 2.0, 'Cu': 4.0, 'O': 8.0}",Cuprates,5
Er0.95Ca0.05Ba2Cu4O8,83.2,Er0.95 Ca0.05 Ba2 Cu4 O8,"[Element Er, Element Ca, Element Ba, Element Cu, Element O]","{'Er': 0.95, 'Ca': 0.05, 'Ba': 2.0, 'Cu': 4.0, 'O': 8.0}",Cuprates,5
Ho0.99Ca0.01Ba2Cu4O8,76.8,Ho0.99 Ca0.01 Ba2 Cu4 O8,"[Element Ho, Element Ca, Element Ba, Element Cu, Element O]","{'Ho': 0.99, 'Ca': 0.01, 'Ba': 2.0, 'Cu': 4.0, 'O': 8.0}",Cuprates,5
Ho0.97Ca0.03Ba2Cu4O8,77.4,Ho0.97 Ca0.03 Ba2 Cu4 O8,"[Element Ho, Element Ca, Element Ba, Element Cu, Element O]","{'Ho': 0.97, 'Ca': 0.03, 'Ba': 2.0, 'Cu': 4.0, 'O': 8.0}",Cuprates,5
Sr2Tm1Cu3O7.65,62.0,Sr2 Tm1 Cu3 O7.65,"[Element Sr, Element Tm, Element Cu, Element O]","{'Sr': 2.0, 'Tm': 1.0, 'Cu': 3.0, 'O': 7.65}",Cuprates,4
Sr2Tm1Cu3O7.2,62.0,Sr2 Tm1 Cu3 O7.2,"[Element Sr, Element Tm, Element Cu, Element O]","{'Sr': 2.0, 'Tm': 1.0, 'Cu': 3.0, 'O': 7.2}",Cuprates,4
Sr2Tm1Cu3O7.28,56.0,Sr2 Tm1 Cu3 O7.28,"[Element Sr, Element Tm, Element Cu, Element O]","{'Sr': 2.0, 'Tm': 1.0, 'Cu': 3.0, 'O': 7.28}",Cuprates,4
Sr2Tm1Cu3O7.48,62.0,Sr2 Tm1 Cu3 O7.48,"[Element Sr, Element Tm, Element Cu, Element O]","{'Sr': 2.0, 'Tm': 1.0, 'Cu': 3.0, 'O': 7.48}",Cuprates,4
B1Sr2Ca2Cu3O9,75.0,B1 Sr2 Ca2 Cu3 O9,"[Element B, Element Sr, Element Ca, Element Cu, Element O]","{'B': 1.0, 'Sr': 2.0, 'Ca': 2.0, 'Cu': 3.0, 'O': 9.0}",Cuprates,5
Eu1Ba2Cu3O6.94,93.6,Eu1 Ba2 Cu3 O6.94,"[Element Eu, Element Ba, Element Cu, Element O]","{'Eu': 1.0, 'Ba': 2.0, 'Cu': 3.0, 'O': 6.94}",Cuprates,4
Eu1Ba2Cu2.9Co0.1O6.97,72.7,Eu1 Ba2 Cu2.9 Co0.1 O6.97,"[Element Eu, Element Ba, Element Cu, Element Co, Element O]","{'Eu': 1.0, 'Ba': 2.0, 'Cu': 2.9, 'Co': 0.1, 'O': 6.97}",Cuprates,5
Eu1Ba2Cu2.8Co0.2O6.98,55.3,Eu1 Ba2 Cu2.8 Co0.2 O6.98,"[Element Eu, Element Ba, Element Cu, Element Co, Element O]","{'Eu': 1.0, 'Ba': 2.0, 'Cu': 2.8, 'Co': 0.2, 'O': 6.98}",Cuprates,5
Eu1Ba2Cu2.7Co0.3O6.95,29.4,Eu1 Ba2 Cu2.7 Co0.3 O6.95,"[Element Eu, Element Ba, Element Cu, Element Co, Element O]","{'Eu': 1.0, 'Ba': 2.0, 'Cu': 2.7, 'Co': 0.3, 'O': 6.95}",Cuprates,5
La2Cu1O4.005,32.0,La2 Cu1 O4.005,"[Element La, Element Cu, Element O]","{'La': 2.0, 'Cu': 1.0, 'O': 4.005}",Cuprates,3
La2Cu1O4.035,35.0,La2 Cu1 O4.035,"[Element La, Element Cu, Element O]","{'La': 2.0, 'Cu': 1.0, 'O': 4.035}",Cuprates,3
La2Cu1O4.021,45.0,La2 Cu1 O4.021,"[Element La, Element Cu, Element O]","{'La': 2.0, 'Cu': 1.0, 'O': 4.021}",Cuprates,3
Bi1.95Sr1.65La0.4Cu1O6.2,10.0,Bi1.95 Sr1.65 La0.4 Cu1 O6.2,"[Element Bi, Element Sr, Element La, Element Cu, Element O]","{'Bi': 1.95, 'Sr': 1.65, 'La': 0.4, 'Cu': 1.0, 'O': 6.2}",Cuprates,5
Bi1.95Sr1.65La0.4Cu1O6.28,32.6,Bi1.95 Sr1.65 La0.4 Cu1 O6.28,"[Element Bi, Element Sr, Element La, Element Cu, Element O]","{'Bi': 1.95, 'Sr': 1.65, 'La': 0.4, 'Cu': 1.0, 'O': 6.28}",Cuprates,5
Bi1.95Sr1.65La0.4Cu1O6.298,34.0,Bi1.95 Sr1.65 La0.4 Cu1 O6.298,"[Element Bi, Element Sr, Element La, Element Cu, Element O]","{'Bi': 1.95, 'Sr': 1.65, 'La': 0.4, 'Cu': 1.0, 'O': 6.298}",Cuprates,5
Bi1.95Sr1.65La0.4Cu1O6.311,35.5,Bi1.95 Sr1.65 La0.4 Cu1 O6.311,"[Element Bi, Element Sr, Element La, Element Cu, Element O]","{'Bi': 1.95, 'Sr': 1.65, 'La': 0.4, 'Cu': 1.0, 'O': 6.311}",Cuprates,5
Bi1.95Sr1.65La0.4Cu1O6.334,30.5,Bi1.95 Sr1.65 La0.4 Cu1 O6.334,"[Element Bi, Element Sr, Element La, Element Cu, Element O]","{'Bi': 1.95, 'Sr': 1.65, 'La': 0.4, 'Cu': 1.0, 'O': 6.334}",Cuprates,5
Bi1.95Sr1.65La0.4Cu1O6.343,26.5,Bi1.95 Sr1.65 La0.4 Cu1 O6.343,"[Element Bi, Element Sr, Element La, Element Cu, Element O]","{'Bi': 1.95, 'Sr': 1.65, 'La': 0.4, 'Cu': 1.0, 'O': 6.343}",Cuprates,5
Bi1.95Sr1.65La0.4Cu1O6.347,24.0,Bi1.95 Sr1.65 La0.4 Cu1 O6.347,"[Element Bi, Element Sr, Element La, Element Cu, Element O]","{'Bi': 1.95, 'Sr': 1.65, 'La': 0.4, 'Cu': 1.0, 'O': 6.347}",Cuprates,5
Bi1.95Sr1.65La0.4Cu1O6.36,23.0,Bi1.95 Sr1.65 La0.4 Cu1 O6.36,"[Element Bi, Element Sr, Element La, Element Cu, Element O]","{'Bi': 1.95, 'Sr': 1.65, 'La': 0.4, 'Cu': 1.0, 'O': 6.36}",Cuprates,5
Bi1.95Sr1.65La0.4Cu1O6.414,10.4,Bi1.95 Sr1.65 La0.4 Cu1 O6.414,"[Element Bi, Element Sr, Element La, Element Cu, Element O]","{'Bi': 1.95, 'Sr': 1.65, 'La': 0.4, 'Cu': 1.0, 'O': 6.414}",Cuprates,5
Bi1.95Sr1.65La0.4Cu1F0.2O6,30.1,Bi1.95 Sr1.65 La0.4 Cu1 F0.2 O6,"[Element Bi, Element Sr, Element La, Element Cu, Element F, Element O]","{'Bi': 1.95, 'Sr': 1.65, 'La': 0.4, 'Cu': 1.0, 'F': 0.2, 'O': 6.0}",Cuprates,6
Bi1.95Sr1.65La0.4Cu1F0.4O5.8,29.0,Bi1.95 Sr1.65 La0.4 Cu1 F0.4 O5.8,"[Element Bi, Element Sr, Element La, Element Cu, Element F, Element O]","{'Bi': 1.95, 'Sr': 1.65, 'La': 0.4, 'Cu': 1.0, 'F': 0.4, 'O': 5.8}",Cuprates,6
Bi1.95Sr1.65La0.4Cu1F0.6O5.6,25.1,Bi1.95 Sr1.65 La0.4 Cu1 F0.6 O5.6,"[Element Bi, Element Sr, Element La, Element Cu, Element F, Element O]","{'Bi': 1.95, 'Sr': 1.65, 'La': 0.4, 'Cu': 1.0, 'F': 0.6, 'O': 5.6}",Cuprates,6
Bi1.95Sr1.65La0.4Cu1F0.8O5.4,13.0,Bi1.95 Sr1.65 La0.4 Cu1 F0.8 O5.4,"[Element Bi, Element Sr, Element La, Element Cu, Element F, Element O]","{'Bi': 1.95, 'Sr': 1.65, 'La': 0.4, 'Cu': 1.0, 'F': 0.8, 'O': 5.4}",Cuprates,6
Bi1.7Pb0.3Sr2Ca1Cu2O8.05,80.5,Bi1.7 Pb0.3 Sr2 Ca1 Cu2 O8.05,"[Element Bi, Element Pb, Element Sr, Element Ca, Element Cu, Element O]","{'Bi': 1.7, 'Pb': 0.3, 'Sr': 2.0, 'Ca': 1.0, 'Cu': 2.0, 'O': 8.05}",Cuprates,6
Er0.76Ca0.24Ba2Cu2.76Co0.24O6.92,84.0,Er0.76 Ca0.24 Ba2 Cu2.76 Co0.24 O6.92,"[Element Er, Element Ca, Element Ba, Element Cu, Element Co, Element O]","{'Er': 0.76, 'Ca': 0.24, 'Ba': 2.0, 'Cu': 2.76, 'Co': 0.24, 'O': 6.92}",Cuprates,6
Er0.76Ca0.24Ba1.8Sr0.2Cu2.76Co0.24O6.91,81.0,Er0.76 Ca0.24 Ba1.8 Sr0.2 Cu2.76 Co0.24 O6.91,"[Element Er, Element Ca, Element Ba, Element Sr, Element Cu, Element Co, Element O]","{'Er': 0.76, 'Ca': 0.24, 'Ba': 1.8, 'Sr': 0.2, 'Cu': 2.76, 'Co': 0.24, 'O': 6.91}",Cuprates,7
Er0.76Ca0.24Ba1.6Sr0.4Cu2.76Co0.24O6.88,77.0,Er0.76 Ca0.24 Ba1.6 Sr0.4 Cu2.76 Co0.24 O6.88,"[Element Er, Element Ca, Element Ba, Element Sr, Element Cu, Element Co, Element O]","{'Er': 0.76, 'Ca': 0.24, 'Ba': 1.6, 'Sr': 0.4, 'Cu': 2.76, 'Co': 0.24, 'O': 6.88}",Cuprates,7
Er0.76Ca0.24Ba1.4Sr0.6Cu2.76Co0.24O6.84,64.0,Er0.76 Ca0.24 Ba1.4 Sr0.6 Cu2.76 Co0.24 O6.84,"[Element Er, Element Ca, Element Ba, Element Sr, Element Cu, Element Co, Element O]","{'Er': 0.76, 'Ca': 0.24, 'Ba': 1.4, 'Sr': 0.6, 'Cu': 2.76, 'Co': 0.24, 'O': 6.84}",Cuprates,7
Er0.64Ca0.36Ba1.4Sr0.6Cu2.76Co0.24O6.8,48.0,Er0.64 Ca0.36 Ba1.4 Sr0.6 Cu2.76 Co0.24 O6.8,"[Element Er, Element Ca, Element Ba, Element Sr, Element Cu, Element Co, Element O]","{'Er': 0.64, 'Ca': 0.36, 'Ba': 1.4, 'Sr': 0.6, 'Cu': 2.76, 'Co': 0.24, 'O': 6.8}",Cuprates,7
Er0.52Ca0.48Ba1.4Sr0.6Cu2.76Co0.24O6.77,54.0,Er0.52 Ca0.48 Ba1.4 Sr0.6 Cu2.76 Co0.24 O6.77,"[Element Er, Element Ca, Element Ba, Element Sr, Element Cu, Element Co, Element O]","{'Er': 0.52, 'Ca': 0.48, 'Ba': 1.4, 'Sr': 0.6, 'Cu': 2.76, 'Co': 0.24, 'O': 6.77}",Cuprates,7
Ca1La1Ba1Cu2.97Fe0.03O7,49.0,Ca1 La1 Ba1 Cu2.97 Fe0.03 O7,"[Element Ca, Element La, Element Ba, Element Cu, Element Fe, Element O]","{'Ca': 1.0, 'La': 1.0, 'Ba': 1.0, 'Cu': 2.97, 'Fe': 0.03, 'O': 7.0}",Cuprates,6
Ca1La1Ba1Cu2.94Fe0.06O7,44.0,Ca1 La1 Ba1 Cu2.94 Fe0.06 O7,"[Element Ca, Element La, Element Ba, Element Cu, Element Fe, Element O]","{'Ca': 1.0, 'La': 1.0, 'Ba': 1.0, 'Cu': 2.94, 'Fe': 0.06, 'O': 7.0}",Cuprates,6
Ca1La1Ba1Cu2.88Fe0.12O7,28.0,Ca1 La1 Ba1 Cu2.88 Fe0.12 O7,"[Element Ca, Element La, Element Ba, Element Cu, Element Fe, Element O]","{'Ca': 1.0, 'La': 1.0, 'Ba': 1.0, 'Cu': 2.88, 'Fe': 0.12, 'O': 7.0}",Cuprates,6
Ca1La1Ba1Cu2.76Fe0.24O7,22.0,Ca1 La1 Ba1 Cu2.76 Fe0.24 O7,"[Element Ca, Element La, Element Ba, Element Cu, Element Fe, Element O]","{'Ca': 1.0, 'La': 1.0, 'Ba': 1.0, 'Cu': 2.76, 'Fe': 0.24, 'O': 7.0}",Cuprates,6
H0.2La1.8Sr0.2Cu1O4,32.0,H0.2 La1.8 Sr0.2 Cu1 O4,"[Element H, Element La, Element Sr, Element Cu, Element O]","{'H': 0.2, 'La': 1.8, 'Sr': 0.2, 'Cu': 1.0, 'O': 4.0}",Cuprates,5
Bi1.8Pb0.2Sr2Ca1Cu1.98Fe0.02O8,54.8,Bi1.8 Pb0.2 Sr2 Ca1 Cu1.98 Fe0.02 O8,"[Element Bi, Element Pb, Element Sr, Element Ca, Element Cu, Element Fe, Element O]","{'Bi': 1.8, 'Pb': 0.2, 'Sr': 2.0, 'Ca': 1.0, 'Cu': 1.98, 'Fe': 0.02, 'O': 8.0}",Cuprates,7
Bi1.8Pb0.2Sr2Ca1Cu1.96Fe0.04O8,48.5,Bi1.8 Pb0.2 Sr2 Ca1 Cu1.96 Fe0.04 O8,"[Element Bi, Element Pb, Element Sr, Element Ca, Element Cu, Element Fe, Element O]","{'Bi': 1.8, 'Pb': 0.2, 'Sr': 2.0, 'Ca': 1.0, 'Cu': 1.96, 'Fe': 0.04, 'O': 8.0}",Cuprates,7
Bi1.8Pb0.2Sr2Ca1Cu1.92Fe0.08O8,33.8,Bi1.8 Pb0.2 Sr2 Ca1 Cu1.92 Fe0.08 O8,"[Element Bi, Element Pb, Element Sr, Element Ca, Element Cu, Element Fe, Element O]","{'Bi': 1.8, 'Pb': 0.2, 'Sr': 2.0, 'Ca': 1.0, 'Cu': 1.92, 'Fe': 0.08, 'O': 8.0}",Cuprates,7
Bi1.8Pb0.2Sr2Ca1Cu1.88Fe0.12O8,30.9,Bi1.8 Pb0.2 Sr2 Ca1 Cu1.88 Fe0.12 O8,"[Element Bi, Element Pb, Element Sr, Element Ca, Element Cu, Element Fe, Element O]","{'Bi': 1.8, 'Pb': 0.2, 'Sr': 2.0, 'Ca': 1.0, 'Cu': 1.88, 'Fe': 0.12, 'O': 8.0}",Cuprates,7
Bi1.8Pb0.2Sr2Ca1Cu1.84Fe0.16O8,26.1,Bi1.8 Pb0.2 Sr2 Ca1 Cu1.84 Fe0.16 O8,"[Element Bi, Element Pb, Element Sr, Element Ca, Element Cu, Element Fe, Element O]","{'Bi': 1.8, 'Pb': 0.2, 'Sr': 2.0, 'Ca': 1.0, 'Cu': 1.84, 'Fe': 0.16, 'O': 8.0}",Cuprates,7
Bi1.8Pb0.2Sr2Ca1Cu1.96Co0.04O8,50.7,Bi1.8 Pb0.2 Sr2 Ca1 Cu1.96 Co0.04 O8,"[Element Bi, Element Pb, Element Sr, Element Ca, Element Cu, Element Co, Element O]","{'Bi': 1.8, 'Pb': 0.2, 'Sr': 2.0, 'Ca': 1.0, 'Cu': 1.96, 'Co': 0.04, 'O': 8.0}",Cuprates,7
Bi1.8Pb0.2Sr2Ca1Cu1.94Co0.06O8,48.6,Bi1.8 Pb0.2 Sr2 Ca1 Cu1.94 Co0.06 O8,"[Element Bi, Element Pb, Element Sr, Element Ca, Element Cu, Element Co, Element O]","{'Bi': 1.8, 'Pb': 0.2, 'Sr': 2.0, 'Ca': 1.0, 'Cu': 1.94, 'Co': 0.06, 'O': 8.0}",Cuprates,7
Bi1.8Pb0.2Sr2Ca1Cu1.92Co0.08O8,43.0,Bi1.8 Pb0.2 Sr2 Ca1 Cu1.92 Co0.08 O8,"[Element Bi, Element Pb, Element Sr, Element Ca, Element Cu, Element Co, Element O]","{'Bi': 1.8, 'Pb': 0.2, 'Sr': 2.0, 'Ca': 1.0, 'Cu': 1.92, 'Co': 0.08, 'O': 8.0}",Cuprates,7
Bi1.8Pb0.2Sr2Ca1Cu1.88Co0.12O8,38.8,Bi1.8 Pb0.2 Sr2 Ca1 Cu1.88 Co0.12 O8,"[Element Bi, Element Pb, Element Sr, Element Ca, Element Cu, Element Co, Element O]","{'Bi': 1.8, 'Pb': 0.2, 'Sr': 2.0, 'Ca': 1.0, 'Cu': 1.88, 'Co': 0.12, 'O': 8.0}",Cuprates,7
Bi1.8Pb0.2Sr2Ca1Cu1.84Co0.16O8,35.8,Bi1.8 Pb0.2 Sr2 Ca1 Cu1.84 Co0.16 O8,"[Element Bi, Element Pb, Element Sr, Element Ca, Element Cu, Element Co, Element O]","{'Bi': 1.8, 'Pb': 0.2, 'Sr': 2.0, 'Ca': 1.0, 'Cu': 1.84, 'Co': 0.16, 'O': 8.0}",Cuprates,7
Tb1Sr2Cu2.69Mo0.31O7,34.5,Tb1 Sr2 Cu2.69 Mo0.31 O7,"[Element Tb, Element Sr, Element Cu, Element Mo, Element O]","{'Tb': 1.0, 'Sr': 2.0, 'Cu': 2.69, 'Mo': 0.31, 'O': 7.0}",Cuprates,5
Bi2Sr2Ca1Cu2O8.214,70.0,Bi2 Sr2 Ca1 Cu2 O8.214,"[Element Bi, Element Sr, Element Ca, Element Cu, Element O]","{'Bi': 2.0, 'Sr': 2.0, 'Ca': 1.0, 'Cu': 2.0, 'O': 8.214}",Cuprates,5
Bi2Sr2Ca1Cu2O8.216,78.0,Bi2 Sr2 Ca1 Cu2 O8.216,"[Element Bi, Element Sr, Element Ca, Element Cu, Element O]","{'Bi': 2.0, 'Sr': 2.0, 'Ca': 1.0, 'Cu': 2.0, 'O': 8.216}",Cuprates,5
Bi2Sr2Ca1Cu2O8.27,84.0,Bi2 Sr2 Ca1 Cu2 O8.27,"[Element Bi, Element Sr, Element Ca, Element Cu, Element O]","{'Bi': 2.0, 'Sr': 2.0, 'Ca': 1.0, 'Cu': 2.0, 'O': 8.27}",Cuprates,5
Eu1.5Ce0.5Sr2Cu2Nb1O9.955,21.0,Eu1.5 Ce0.5 Sr2 Cu2 Nb1 O9.955,"[Element Eu, Element Ce, Element Sr, Element Cu, Element Nb, Element O]","{'Eu': 1.5, 'Ce': 0.5, 'Sr': 2.0, 'Cu': 2.0, 'Nb': 1.0, 'O': 9.955}",Cuprates,6
Lu0.8Ca0.2Ba2Cu3O6.13,41.0,Lu0.8 Ca0.2 Ba2 Cu3 O6.13,"[Element Lu, Element Ca, Element Ba, Element Cu, Element O]","{'Lu': 0.8, 'Ca': 0.2, 'Ba': 2.0, 'Cu': 3.0, 'O': 6.13}",Cuprates,5
Lu0.7Ca0.3Ba2Cu3O6.15,58.0,Lu0.7 Ca0.3 Ba2 Cu3 O6.15,"[Element Lu, Element Ca, Element Ba, Element Cu, Element O]","{'Lu': 0.7, 'Ca': 0.3, 'Ba': 2.0, 'Cu': 3.0, 'O': 6.15}",Cuprates,5
Lu0.8Ca0.2Ba2Cu3O6.54,65.0,Lu0.8 Ca0.2 Ba2 Cu3 O6.54,"[Element Lu, Element Ca, Element Ba, Element Cu, Element O]","{'Lu': 0.8, 'Ca': 0.2, 'Ba': 2.0, 'Cu': 3.0, 'O': 6.54}",Cuprates,5