chemical_formula,Tc,composition,elements,stoichiometry,Category,num_elements
Lu0.7Ca0.3Ba2Cu3O6.4,68.0,Lu0.7 Ca0.3 Ba2 Cu3 O6.4,"[Element Lu, Element Ca, Element Ba, Element Cu, Element O]","{'Lu': 0.7, 'Ca': 0.3, 'Ba': 2.0, 'Cu': 3.0, 'O': 6.4}",Cuprates,5
Lu0.8Ca0.2Ba2Cu3O6.81,52.0,Lu0.8 Ca0.2 Ba2 Cu3 O6.81,"[Element Lu, Element Ca, Element Ba, Element Cu, Element O]","{'Lu': 0.8, 'Ca': 0.2, 'Ba': 2.0, 'Cu': 3.0, 'O': 6.81}",Cuprates,5
Lu0.7Ca0.3Ba2Cu3O6.78,54.0,Lu0.7 Ca0.3 Ba2 Cu3 O6.78,"[Element Lu, Element Ca, Element Ba, Element Cu, Element O]","{'Lu': 0.7, 'Ca': 0.3, 'Ba': 2.0, 'Cu': 3.0, 'O': 6.78}",Cuprates,5
Lu0.8Ca0.2Ba2Cu3O6.68,78.0,Lu0.8 Ca0.2 Ba2 Cu3 O6.68,"[Element Lu, Element Ca, Element Ba, Element Cu, Element O]","{'Lu': 0.8, 'Ca': 0.2, 'Ba': 2.0, 'Cu': 3.0, 'O': 6.68}",Cuprates,5
Lu0.7Ca0.3Ba2Cu3O6.62,80.0,Lu0.7 Ca0.3 Ba2 Cu3 O6.62,"[Element Lu, Element Ca, Element Ba, Element Cu, Element O]","{'Lu': 0.7, 'Ca': 0.3, 'Ba': 2.0, 'Cu': 3.0, 'O': 6.62}",Cuprates,5
Lu0.8Ca0.2Ba2Cu3O6.91,48.0,Lu0.8 Ca0.2 Ba2 Cu3 O6.91,"[Element Lu, Element Ca, Element Ba, Element Cu, Element O]","{'Lu': 0.8, 'Ca': 0.2, 'Ba': 2.0, 'Cu': 3.0, 'O': 6.91}",Cuprates,5
Lu0.7Ca0.3Ba2Cu3O6.88,45.0,Lu0.7 Ca0.3 Ba2 Cu3 O6.88,"[Element Lu, Element Ca, Element Ba, Element Cu, Element O]","{'Lu': 0.7, 'Ca': 0.3, 'Ba': 2.0, 'Cu': 3.0, 'O': 6.88}",Cuprates,5
Eu2Ba4Cu7O14.671,75.0,Eu2 Ba4 Cu7 O14.671,"[Element Eu, Element Ba, Element Cu, Element O]","{'Eu': 2.0, 'Ba': 4.0, 'Cu': 7.0, 'O': 14.671}",Cuprates,4
Eu1.8Pr0.2Ba4Cu7O14.779,68.0,Eu1.8 Pr0.2 Ba4 Cu7 O14.779,"[Element Eu, Element Pr, Element Ba, Element Cu, Element O]","{'Eu': 1.8, 'Pr': 0.2, 'Ba': 4.0, 'Cu': 7.0, 'O': 14.779}",Cuprates,5
Eu1.6Pr0.4Ba4Cu7O14.761,63.0,Eu1.6 Pr0.4 Ba4 Cu7 O14.761,"[Element Eu, Element Pr, Element Ba, Element Cu, Element O]","{'Eu': 1.6, 'Pr': 0.4, 'Ba': 4.0, 'Cu': 7.0, 'O': 14.761}",Cuprates,5
Eu1.4Pr0.6Ba4Cu7O14.632,58.0,Eu1.4 Pr0.6 Ba4 Cu7 O14.632,"[Element Eu, Element Pr, Element Ba, Element Cu, Element O]","{'Eu': 1.4, 'Pr': 0.6, 'Ba': 4.0, 'Cu': 7.0, 'O': 14.632}",Cuprates,5
Eu1.2Pr0.8Ba4Cu7O14.788,52.0,Eu1.2 Pr0.8 Ba4 Cu7 O14.788,"[Element Eu, Element Pr, Element Ba, Element Cu, Element O]","{'Eu': 1.2, 'Pr': 0.8, 'Ba': 4.0, 'Cu': 7.0, 'O': 14.788}",Cuprates,5
Tm2Ba4Cu7O14.732,88.0,Tm2 Ba4 Cu7 O14.732,"[Element Tm, Element Ba, Element Cu, Element O]","{'Tm': 2.0, 'Ba': 4.0, 'Cu': 7.0, 'O': 14.732}",Cuprates,4
Tm1.8Pr0.2Ba4Cu7O14.725,76.0,Tm1.8 Pr0.2 Ba4 Cu7 O14.725,"[Element Tm, Element Pr, Element Ba, Element Cu, Element O]","{'Tm': 1.8, 'Pr': 0.2, 'Ba': 4.0, 'Cu': 7.0, 'O': 14.725}",Cuprates,5
Tm1.6Pr0.4Ba4Cu7O14.722,68.0,Tm1.6 Pr0.4 Ba4 Cu7 O14.722,"[Element Tm, Element Pr, Element Ba, Element Cu, Element O]","{'Tm': 1.6, 'Pr': 0.4, 'Ba': 4.0, 'Cu': 7.0, 'O': 14.722}",Cuprates,5
Tm1.4Pr0.6Ba4Cu7O14.667,60.0,Tm1.4 Pr0.6 Ba4 Cu7 O14.667,"[Element Tm, Element Pr, Element Ba, Element Cu, Element O]","{'Tm': 1.4, 'Pr': 0.6, 'Ba': 4.0, 'Cu': 7.0, 'O': 14.667}",Cuprates,5
Tm1.2Pr0.8Ba4Cu7O14.652,50.0,Tm1.2 Pr0.8 Ba4 Cu7 O14.652,"[Element Tm, Element Pr, Element Ba, Element Cu, Element O]","{'Tm': 1.2, 'Pr': 0.8, 'Ba': 4.0, 'Cu': 7.0, 'O': 14.652}",Cuprates,5
Bi1.8V0.2Sr2Ca2Cu3O2,112.0,Bi1.8 V0.2 Sr2 Ca2 Cu3 O2,"[Element Bi, Element V, Element Sr, Element Ca, Element Cu, Element O]","{'Bi': 1.8, 'V': 0.2, 'Sr': 2.0, 'Ca': 2.0, 'Cu': 3.0, 'O': 2.0}",Cuprates,6
Ho1Sr0.2Ba1.8Cu4O8,68.8,Ho1 Sr0.2 Ba1.8 Cu4 O8,"[Element Ho, Element Sr, Element Ba, Element Cu, Element O]","{'Ho': 1.0, 'Sr': 0.2, 'Ba': 1.8, 'Cu': 4.0, 'O': 8.0}",Cuprates,5
Ho1Sr0.4Ba1.6Cu4O8,68.1,Ho1 Sr0.4 Ba1.6 Cu4 O8,"[Element Ho, Element Sr, Element Ba, Element Cu, Element O]","{'Ho': 1.0, 'Sr': 0.4, 'Ba': 1.6, 'Cu': 4.0, 'O': 8.0}",Cuprates,5
Ho1Sr0.6Ba1.4Cu4O8,68.3,Ho1 Sr0.6 Ba1.4 Cu4 O8,"[Element Ho, Element Sr, Element Ba, Element Cu, Element O]","{'Ho': 1.0, 'Sr': 0.6, 'Ba': 1.4, 'Cu': 4.0, 'O': 8.0}",Cuprates,5
La1.85Sr0.15Cu0.9Mg0.1O4,29.6,La1.85 Sr0.15 Cu0.9 Mg0.1 O4,"[Element La, Element Sr, Element Cu, Element Mg, Element O]","{'La': 1.85, 'Sr': 0.15, 'Cu': 0.9, 'Mg': 0.1, 'O': 4.0}",Cuprates,5
La1.85Sr0.15Cu0.8Mg0.2O4,15.6,La1.85 Sr0.15 Cu0.8 Mg0.2 O4,"[Element La, Element Sr, Element Cu, Element Mg, Element O]","{'La': 1.85, 'Sr': 0.15, 'Cu': 0.8, 'Mg': 0.2, 'O': 4.0}",Cuprates,5
La0.7Pr0.3Ca1Ba1Cu3O7,40.0,La0.7 Pr0.3 Ca1 Ba1 Cu3 O7,"[Element La, Element Pr, Element Ca, Element Ba, Element Cu, Element O]","{'La': 0.7, 'Pr': 0.3, 'Ca': 1.0, 'Ba': 1.0, 'Cu': 3.0, 'O': 7.0}",Cuprates,6
Pr1.79Ce0.15Sr0.06Cu1O3.94,21.0,Pr1.79 Ce0.15 Sr0.06 Cu1 O3.94,"[Element Pr, Element Ce, Element Sr, Element Cu, Element O]","{'Pr': 1.79, 'Ce': 0.15, 'Sr': 0.06, 'Cu': 1.0, 'O': 3.94}",Cuprates,5
Pr1.74Ce0.15Sr0.11Cu1O3.96,18.0,Pr1.74 Ce0.15 Sr0.11 Cu1 O3.96,"[Element Pr, Element Ce, Element Sr, Element Cu, Element O]","{'Pr': 1.74, 'Ce': 0.15, 'Sr': 0.11, 'Cu': 1.0, 'O': 3.96}",Cuprates,5
Pr1.9Ce0.1Cu1O3.98,9.0,Pr1.9 Ce0.1 Cu1 O3.98,"[Element Pr, Element Ce, Element Cu, Element O]","{'Pr': 1.9, 'Ce': 0.1, 'Cu': 1.0, 'O': 3.98}",Cuprates,4
Pr1.87Ce0.13Cu1O3.99,16.0,Pr1.87 Ce0.13 Cu1 O3.99,"[Element Pr, Element Ce, Element Cu, Element O]","{'Pr': 1.87, 'Ce': 0.13, 'Cu': 1.0, 'O': 3.99}",Cuprates,4
Pr1.83Ce0.17Cu1O3.99,13.0,Pr1.83 Ce0.17 Cu1 O3.99,"[Element Pr, Element Ce, Element Cu, Element O]","{'Pr': 1.83, 'Ce': 0.17, 'Cu': 1.0, 'O': 3.99}",Cuprates,4
La1.2Ba1.8Cu3O7.2,27.0,La1.2 Ba1.8 Cu3 O7.2,"[Element La, Element Ba, Element Cu, Element O]","{'La': 1.2, 'Ba': 1.8, 'Cu': 3.0, 'O': 7.2}",Cuprates,4
La1.2Ba1.8Cu3O7.3,27.0,La1.2 Ba1.8 Cu3 O7.3,"[Element La, Element Ba, Element Cu, Element O]","{'La': 1.2, 'Ba': 1.8, 'Cu': 3.0, 'O': 7.3}",Cuprates,4
Tl0.8Bi0.2Ba2Ca2Cu3O9,116.0,Tl0.8 Bi0.2 Ba2 Ca2 Cu3 O9,"[Element Tl, Element Bi, Element Ba, Element Ca, Element Cu, Element O]","{'Tl': 0.8, 'Bi': 0.2, 'Ba': 2.0, 'Ca': 2.0, 'Cu': 3.0, 'O': 9.0}",Cuprates,6
Sr2Cu1O3.1,70.0,Sr2 Cu1 O3.1,"[Element Sr, Element Cu, Element O]","{'Sr': 2.0, 'Cu': 1.0, 'O': 3.1}",Cuprates,3
Tm1.83Ca0.17Cu1O4,30.0,Tm1.83 Ca0.17 Cu1 O4,"[Element Tm, Element Ca, Element Cu, Element O]","{'Tm': 1.83, 'Ca': 0.17, 'Cu': 1.0, 'O': 4.0}",Cuprates,4
Ba0.9K0.1Pb1O3,30.0,Ba0.9 K0.1 Pb1 O3,"[Element Ba, Element K, Element Pb, Element O]","{'Ba': 0.9, 'K': 0.1, 'Pb': 1.0, 'O': 3.0}",Other,4
La1.85Sr0.15Cu0.98Li0.02O4,36.5,La1.85 Sr0.15 Cu0.98 Li0.02 O4,"[Element La, Element Sr, Element Cu, Element Li, Element O]","{'La': 1.85, 'Sr': 0.15, 'Cu': 0.98, 'Li': 0.02, 'O': 4.0}",Cuprates,5
La1.85Sr0.15Cu0.97Li0.03O4,33.5,La1.85 Sr0.15 Cu0.97 Li0.03 O4,"[Element La, Element Sr, Element Cu, Element Li, Element O]","{'La': 1.85, 'Sr': 0.15, 'Cu': 0.97, 'Li': 0.03, 'O': 4.0}",Cuprates,5
La1.85Sr0.15Cu0.95Li0.05O4,27.2,La1.85 Sr0.15 Cu0.95 Li0.05 O4,"[Element La, Element Sr, Element Cu, Element Li, Element O]","{'La': 1.85, 'Sr': 0.15, 'Cu': 0.95, 'Li': 0.05, 'O': 4.0}",Cuprates,5
Pb0.6Cu0.4Sr1La1Cu1O5.05,37.6,Pb0.6 Cu1.4 Sr1 La1 O5.05,"[Element Pb, Element Cu, Element Sr, Element La, Element O]","{'Pb': 0.6, 'Cu': 1.4, 'Sr': 1.0, 'La': 1.0, 'O': 5.05}",Cuprates,5
Pb0.6Cu0.4Sr1La1Cu1O5.06,37.8,Pb0.6 Cu1.4 Sr1 La1 O5.06,"[Element Pb, Element Cu, Element Sr, Element La, Element O]","{'Pb': 0.6, 'Cu': 1.4, 'Sr': 1.0, 'La': 1.0, 'O': 5.06}",Cuprates,5
Pb0.6Cu0.4Sr1La1Cu1O5.09,36.7,Pb0.6 Cu1.4 Sr1 La1 O5.09,"[Element Pb, Element Cu, Element Sr, Element La, Element O]","{'Pb': 0.6, 'Cu': 1.4, 'Sr': 1.0, 'La': 1.0, 'O': 5.09}",Cuprates,5
Pb0.6Cu0.4Sr1La1Cu1O5.12,35.9,Pb0.6 Cu1.4 Sr1 La1 O5.12,"[Element Pb, Element Cu, Element Sr, Element La, Element O]","{'Pb': 0.6, 'Cu': 1.4, 'Sr': 1.0, 'La': 1.0, 'O': 5.12}",Cuprates,5
Pb0.6Cu0.4Sr1La1Cu1O5.15,32.0,Pb0.6 Cu1.4 Sr1 La1 O5.15,"[Element Pb, Element Cu, Element Sr, Element La, Element O]","{'Pb': 0.6, 'Cu': 1.4, 'Sr': 1.0, 'La': 1.0, 'O': 5.15}",Cuprates,5
Pb0.6Cu0.4Sr1La1Cu1O5.19,25.1,Pb0.6 Cu1.4 Sr1 La1 O5.19,"[Element Pb, Element Cu, Element Sr, Element La, Element O]","{'Pb': 0.6, 'Cu': 1.4, 'Sr': 1.0, 'La': 1.0, 'O': 5.19}",Cuprates,5
Pb0.6Cu0.4Sr1La1Cu1O5.21,25.1,Pb0.6 Cu1.4 Sr1 La1 O5.21,"[Element Pb, Element Cu, Element Sr, Element La, Element O]","{'Pb': 0.6, 'Cu': 1.4, 'Sr': 1.0, 'La': 1.0, 'O': 5.21}",Cuprates,5
Pb0.6Cu0.4Sr1.1La0.9Cu1O5.07,33.9,Pb0.6 Cu1.4 Sr1.1 La0.9 O5.07,"[Element Pb, Element Cu, Element Sr, Element La, Element O]","{'Pb': 0.6, 'Cu': 1.4, 'Sr': 1.1, 'La': 0.9, 'O': 5.07}",Cuprates,5
Pb0.6Cu0.4Sr1.1La0.9Cu1O5.12,31.0,Pb0.6 Cu1.4 Sr1.1 La0.9 O5.12,"[Element Pb, Element Cu, Element Sr, Element La, Element O]","{'Pb': 0.6, 'Cu': 1.4, 'Sr': 1.1, 'La': 0.9, 'O': 5.12}",Cuprates,5
Pb0.6Cu0.4Sr1.1La0.9Cu1O5.18,28.0,Pb0.6 Cu1.4 Sr1.1 La0.9 O5.18,"[Element Pb, Element Cu, Element Sr, Element La, Element O]","{'Pb': 0.6, 'Cu': 1.4, 'Sr': 1.1, 'La': 0.9, 'O': 5.18}",Cuprates,5
Pb0.6Cu0.4Sr1.1La0.9Cu1O5.19,25.0,Pb0.6 Cu1.4 Sr1.1 La0.9 O5.19,"[Element Pb, Element Cu, Element Sr, Element La, Element O]","{'Pb': 0.6, 'Cu': 1.4, 'Sr': 1.1, 'La': 0.9, 'O': 5.19}",Cuprates,5
Pb0.6Cu0.4Sr0.8La1.2Cu1O5.06,28.7,Pb0.6 Cu1.4 Sr0.8 La1.2 O5.06,"[Element Pb, Element Cu, Element Sr, Element La, Element O]","{'Pb': 0.6, 'Cu': 1.4, 'Sr': 0.8, 'La': 1.2, 'O': 5.06}",Cuprates,5
Pb0.6Cu0.4Sr0.8La1.2Cu1O5.11,34.8,Pb0.6 Cu1.4 Sr0.8 La1.2 O5.11,"[Element Pb, Element Cu, Element Sr, Element La, Element O]","{'Pb': 0.6, 'Cu': 1.4, 'Sr': 0.8, 'La': 1.2, 'O': 5.11}",Cuprates,5
Pb0.6Cu0.4Sr0.8La1.2Cu1O5.29,25.2,Pb0.6 Cu1.4 Sr0.8 La1.2 O5.29,"[Element Pb, Element Cu, Element Sr, Element La, Element O]","{'Pb': 0.6, 'Cu': 1.4, 'Sr': 0.8, 'La': 1.2, 'O': 5.29}",Cuprates,5
Pb0.6Cu0.4Sr0.8La1.2Cu1O5.28,28.1,Pb0.6 Cu1.4 Sr0.8 La1.2 O5.28,"[Element Pb, Element Cu, Element Sr, Element La, Element O]","{'Pb': 0.6, 'Cu': 1.4, 'Sr': 0.8, 'La': 1.2, 'O': 5.28}",Cuprates,5
Pb0.6Cu0.4Sr0.9La1.1Cu1O5.06,37.6,Pb0.6 Cu1.4 Sr0.9 La1.1 O5.06,"[Element Pb, Element Cu, Element Sr, Element La, Element O]","{'Pb': 0.6, 'Cu': 1.4, 'Sr': 0.9, 'La': 1.1, 'O': 5.06}",Cuprates,5
Pb0.6Cu0.4Sr0.9La1.1Cu1O5.18,31.6,Pb0.6 Cu1.4 Sr0.9 La1.1 O5.18,"[Element Pb, Element Cu, Element Sr, Element La, Element O]","{'Pb': 0.6, 'Cu': 1.4, 'Sr': 0.9, 'La': 1.1, 'O': 5.18}",Cuprates,5
Pb0.6Cu0.4Sr0.9La1.1Cu1O5.24,27.8,Pb0.6 Cu1.4 Sr0.9 La1.1 O5.24,"[Element Pb, Element Cu, Element Sr, Element La, Element O]","{'Pb': 0.6, 'Cu': 1.4, 'Sr': 0.9, 'La': 1.1, 'O': 5.24}",Cuprates,5
Pb0.5Cu0.5Sr1La1Cu1O5.03,36.7,Pb0.5 Cu1.5 Sr1 La1 O5.03,"[Element Pb, Element Cu, Element Sr, Element La, Element O]","{'Pb': 0.5, 'Cu': 1.5, 'Sr': 1.0, 'La': 1.0, 'O': 5.03}",Cuprates,5
Pb0.5Cu0.5Sr1La1Cu1O5.05,36.7,Pb0.5 Cu1.5 Sr1 La1 O5.05,"[Element Pb, Element Cu, Element Sr, Element La, Element O]","{'Pb': 0.5, 'Cu': 1.5, 'Sr': 1.0, 'La': 1.0, 'O': 5.05}",Cuprates,5
Pb0.5Cu0.5Sr1La1Cu1O5.1,31.9,Pb0.5 Cu1.5 Sr1 La1 O5.1,"[Element Pb, Element Cu, Element Sr, Element La, Element O]","{'Pb': 0.5, 'Cu': 1.5, 'Sr': 1.0, 'La': 1.0, 'O': 5.1}",Cuprates,5
Pb0.5Cu0.5Sr1La1Cu1O5.15,28.0,Pb0.5 Cu1.5 Sr1 La1 O5.15,"[Element Pb, Element Cu, Element Sr, Element La, Element O]","{'Pb': 0.5, 'Cu': 1.5, 'Sr': 1.0, 'La': 1.0, 'O': 5.15}",Cuprates,5
Pb0.5Cu0.5Sr1La1Cu1O5.19,24.1,Pb0.5 Cu1.5 Sr1 La1 O5.19,"[Element Pb, Element Cu, Element Sr, Element La, Element O]","{'Pb': 0.5, 'Cu': 1.5, 'Sr': 1.0, 'La': 1.0, 'O': 5.19}",Cuprates,5
Pb0.5Cu0.5Sr0.8La1.2Cu1O5.01,38.7,Pb0.5 Cu1.5 Sr0.8 La1.2 O5.01,"[Element Pb, Element Cu, Element Sr, Element La, Element O]","{'Pb': 0.5, 'Cu': 1.5, 'Sr': 0.8, 'La': 1.2, 'O': 5.01}",Cuprates,5
Pb0.5Cu0.5Sr0.8La1.2Cu1O5.1,34.9,Pb0.5 Cu1.5 Sr0.8 La1.2 O5.1,"[Element Pb, Element Cu, Element Sr, Element La, Element O]","{'Pb': 0.5, 'Cu': 1.5, 'Sr': 0.8, 'La': 1.2, 'O': 5.1}",Cuprates,5
Pb0.5Cu0.5Sr0.8La1.2Cu1O5.16,28.0,Pb0.5 Cu1.5 Sr0.8 La1.2 O5.16,"[Element Pb, Element Cu, Element Sr, Element La, Element O]","{'Pb': 0.5, 'Cu': 1.5, 'Sr': 0.8, 'La': 1.2, 'O': 5.16}",Cuprates,5
Pb0.5Cu0.5Sr0.8La1.2Cu1O5.25,25.2,Pb0.5 Cu1.5 Sr0.8 La1.2 O5.25,"[Element Pb, Element Cu, Element Sr, Element La, Element O]","{'Pb': 0.5, 'Cu': 1.5, 'Sr': 0.8, 'La': 1.2, 'O': 5.25}",Cuprates,5
Pb0.5Cu0.5Sr0.9La1.1Cu1O5.02,38.5,Pb0.5 Cu1.5 Sr0.9 La1.1 O5.02,"[Element Pb, Element Cu, Element Sr, Element La, Element O]","{'Pb': 0.5, 'Cu': 1.5, 'Sr': 0.9, 'La': 1.1, 'O': 5.02}",Cuprates,5
Pb0.5Cu0.5Sr0.9La1.1Cu1O5.08,37.7,Pb0.5 Cu1.5 Sr0.9 La1.1 O5.08,"[Element Pb, Element Cu, Element Sr, Element La, Element O]","{'Pb': 0.5, 'Cu': 1.5, 'Sr': 0.9, 'La': 1.1, 'O': 5.08}",Cuprates,5
Pb0.5Cu0.5Sr0.9La1.1Cu1O5.16,28.1,Pb0.5 Cu1.5 Sr0.9 La1.1 O5.16,"[Element Pb, Element Cu, Element Sr, Element La, Element O]","{'Pb': 0.5, 'Cu': 1.5, 'Sr': 0.9, 'La': 1.1, 'O': 5.16}",Cuprates,5
Pb0.5Cu0.5Sr0.9La1.1Cu1O5.22,24.9,Pb0.5 Cu1.5 Sr0.9 La1.1 O5.22,"[Element Pb, Element Cu, Element Sr, Element La, Element O]","{'Pb': 0.5, 'Cu': 1.5, 'Sr': 0.9, 'La': 1.1, 'O': 5.22}",Cuprates,5
Hg0.75Ba2.07Ca2.07Cu3.11O8.136,132.9,Hg0.75 Ba2.07 Ca2.07 Cu3.11 O8.136,"[Element Hg, Element Ba, Element Ca, Element Cu, Element O]","{'Hg': 0.75, 'Ba': 2.07, 'Ca': 2.07, 'Cu': 3.11, 'O': 8.136}",Cuprates,5
Hg0.92Ba2.05Cu1.03O4.044,90.7,Hg0.92 Ba2.05 Cu1.03 O4.044,"[Element Hg, Element Ba, Element Cu, Element O]","{'Hg': 0.92, 'Ba': 2.05, 'Cu': 1.03, 'O': 4.044}",Cuprates,4
Tl0.5Bi0.5Sr4Cu2C1O10,55.0,Tl0.5 Bi0.5 Sr4 Cu2 C1 O10,"[Element Tl, Element Bi, Element Sr, Element Cu, Element C, Element O]","{'Tl': 0.5, 'Bi': 0.5, 'Sr': 4.0, 'Cu': 2.0, 'C': 1.0, 'O': 10.0}",Cuprates,6
Tl0.7Bi0.3Sr4Cu2C1O10,50.0,Tl0.7 Bi0.3 Sr4 Cu2 C1 O10,"[Element Tl, Element Bi, Element Sr, Element Cu, Element C, Element O]","{'Tl': 0.7, 'Bi': 0.3, 'Sr': 4.0, 'Cu': 2.0, 'C': 1.0, 'O': 10.0}",Cuprates,6
Bi2Sr4Cu2C1O11,30.0,Bi2 Sr4 Cu2 C1 O11,"[Element Bi, Element Sr, Element Cu, Element C, Element O]","{'Bi': 2.0, 'Sr': 4.0, 'Cu': 2.0, 'C': 1.0, 'O': 11.0}",Cuprates,5
Tl0.5Pb0.5Sr4Cu2C7.75O23.25,23.0,Tl0.5 Pb0.5 Sr4 Cu2 C7.75 O23.25,"[Element Tl, Element Pb, Element Sr, Element Cu, Element C, Element O]","{'Tl': 0.5, 'Pb': 0.5, 'Sr': 4.0, 'Cu': 2.0, 'C': 7.75, 'O': 23.25}",Cuprates,6
Tl0.5Pb0.5Sr4Cu2C7O21,60.0,Tl0.5 Pb0.5 Sr4 Cu2 C7 O21,"[Element Tl, Element Pb, Element Sr, Element Cu, Element C, Element O]","{'Tl': 0.5, 'Pb': 0.5, 'Sr': 4.0, 'Cu': 2.0, 'C': 7.0, 'O': 21.0}",Cuprates,6
Hg0.75Ba2.07Ca2.07Cu3.11O8.15,134.7,Hg0.75 Ba2.07 Ca2.07 Cu3.11 O8.15,"[Element Hg, Element Ba, Element Ca, Element Cu, Element O]","{'Hg': 0.75, 'Ba': 2.07, 'Ca': 2.07, 'Cu': 3.11, 'O': 8.15}",Cuprates,5
Hg0.75Ba2.07Ca2.07Cu3.11O8.16,134.2,Hg0.75 Ba2.07 Ca2.07 Cu3.11 O8.16,"[Element Hg, Element Ba, Element Ca, Element Cu, Element O]","{'Hg': 0.75, 'Ba': 2.07, 'Ca': 2.07, 'Cu': 3.11, 'O': 8.16}",Cuprates,5
Hg0.75Ba2.07Ca2.07Cu3.11O8.187,135.4,Hg0.75 Ba2.07 Ca2.07 Cu3.11 O8.187,"[Element Hg, Element Ba, Element Ca, Element Cu, Element O]","{'Hg': 0.75, 'Ba': 2.07, 'Ca': 2.07, 'Cu': 3.11, 'O': 8.187}",Cuprates,5
Hg0.75Ba2.07Ca2.07Cu3.11O8.208,135.8,Hg0.75 Ba2.07 Ca2.07 Cu3.11 O8.208,"[Element Hg, Element Ba, Element Ca, Element Cu, Element O]","{'Hg': 0.75, 'Ba': 2.07, 'Ca': 2.07, 'Cu': 3.11, 'O': 8.208}",Cuprates,5
Hg0.75Ba2.07Ca2.07Cu3.11O8.223,133.4,Hg0.75 Ba2.07 Ca2.07 Cu3.11 O8.223,"[Element Hg, Element Ba, Element Ca, Element Cu, Element O]","{'Hg': 0.75, 'Ba': 2.07, 'Ca': 2.07, 'Cu': 3.11, 'O': 8.223}",Cuprates,5
Hg0.92Ba2.05Cu1.03O4.05,93.8,Hg0.92 Ba2.05 Cu1.03 O4.05,"[Element Hg, Element Ba, Element Cu, Element O]","{'Hg': 0.92, 'Ba': 2.05, 'Cu': 1.03, 'O': 4.05}",Cuprates,4
Hg0.92Ba2.05Cu1.03O4.058,92.1,Hg0.92 Ba2.05 Cu1.03 O4.058,"[Element Hg, Element Ba, Element Cu, Element O]","{'Hg': 0.92, 'Ba': 2.05, 'Cu': 1.03, 'O': 4.058}",Cuprates,4
Hg0.92Ba2.05Cu1.03O4.062,96.5,Hg0.92 Ba2.05 Cu1.03 O4.062,"[Element Hg, Element Ba, Element Cu, Element O]","{'Hg': 0.92, 'Ba': 2.05, 'Cu': 1.03, 'O': 4.062}",Cuprates,4
Hg0.92Ba2.05Cu1.03O4.063,93.4,Hg0.92 Ba2.05 Cu1.03 O4.063,"[Element Hg, Element Ba, Element Cu, Element O]","{'Hg': 0.92, 'Ba': 2.05, 'Cu': 1.03, 'O': 4.063}",Cuprates,4
Hg0.92Ba2.05Cu1.03O4.065,91.6,Hg0.92 Ba2.05 Cu1.03 O4.065,"[Element Hg, Element Ba, Element Cu, Element O]","{'Hg': 0.92, 'Ba': 2.05, 'Cu': 1.03, 'O': 4.065}",Cuprates,4
Hg0.92Ba2.05Cu1.03O4.079,79.2,Hg0.92 Ba2.05 Cu1.03 O4.079,"[Element Hg, Element Ba, Element Cu, Element O]","{'Hg': 0.92, 'Ba': 2.05, 'Cu': 1.03, 'O': 4.079}",Cuprates,4
Hg0.92Ba2.05Cu1.03O4.087,70.3,Hg0.92 Ba2.05 Cu1.03 O4.087,"[Element Hg, Element Ba, Element Cu, Element O]","{'Hg': 0.92, 'Ba': 2.05, 'Cu': 1.03, 'O': 4.087}",Cuprates,4
Hg0.92Ba2.05Cu1.03O4.103,63.6,Hg0.92 Ba2.05 Cu1.03 O4.103,"[Element Hg, Element Ba, Element Cu, Element O]","{'Hg': 0.92, 'Ba': 2.05, 'Cu': 1.03, 'O': 4.103}",Cuprates,4
La0.75Sm0.25Ba1Ca1Cu3O7,71.0,La0.75 Sm0.25 Ba1 Ca1 Cu3 O7,"[Element La, Element Sm, Element Ba, Element Ca, Element Cu, Element O]","{'La': 0.75, 'Sm': 0.25, 'Ba': 1.0, 'Ca': 1.0, 'Cu': 3.0, 'O': 7.0}",Cuprates,6
La0.5Sm0.5Ba1Ca1Cu3O7,66.0,La0.5 Sm0.5 Ba1 Ca1 Cu3 O7,"[Element La, Element Sm, Element Ba, Element Ca, Element Cu, Element O]","{'La': 0.5, 'Sm': 0.5, 'Ba': 1.0, 'Ca': 1.0, 'Cu': 3.0, 'O': 7.0}",Cuprates,6
La0.25Sm0.75Ba1Ca1Cu3O7,65.0,La0.25 Sm0.75 Ba1 Ca1 Cu3 O7,"[Element La, Element Sm, Element Ba, Element Ca, Element Cu, Element O]","{'La': 0.25, 'Sm': 0.75, 'Ba': 1.0, 'Ca': 1.0, 'Cu': 3.0, 'O': 7.0}",Cuprates,6
La0.8Pr0.2Ba1Ca1Cu3O7,52.0,La0.8 Pr0.2 Ba1 Ca1 Cu3 O7,"[Element La, Element Pr, Element Ba, Element Ca, Element Cu, Element O]","{'La': 0.8, 'Pr': 0.2, 'Ba': 1.0, 'Ca': 1.0, 'Cu': 3.0, 'O': 7.0}",Cuprates,6
La0.6Pr0.6Ba1Ca1Cu3O7,28.0,La0.6 Pr0.6 Ba1 Ca1 Cu3 O7,"[Element La, Element Pr, Element Ba, Element Ca, Element Cu, Element O]","{'La': 0.6, 'Pr': 0.6, 'Ba': 1.0, 'Ca': 1.0, 'Cu': 3.0, 'O': 7.0}",Cuprates,6
La0.4Pr0.4Ba1Ca1Cu3O7,14.0,La0.4 Pr0.4 Ba1 Ca1 Cu3 O7,"[Element La, Element Pr, Element Ba, Element Ca, Element Cu, Element O]","{'La': 0.4, 'Pr': 0.4, 'Ba': 1.0, 'Ca': 1.0, 'Cu': 3.0, 'O': 7.0}",Cuprates,6
La1.82Ca1.18Cu2O6,55.0,La1.82 Ca1.18 Cu2 O6,"[Element La, Element Ca, Element Cu, Element O]","{'La': 1.82, 'Ca': 1.18, 'Cu': 2.0, 'O': 6.0}",Cuprates,4
Cu6.5Sr2Ca5Cr0.5O15.17,32.0,Cu6.5 Sr2 Ca5 Cr0.5 O15.17,"[Element Cu, Element Sr, Element Ca, Element Cr, Element O]","{'Cu': 6.5, 'Sr': 2.0, 'Ca': 5.0, 'Cr': 0.5, 'O': 15.17}",Cuprates,5
Cu7.5Sr2Ca6Cr0.5O17.1,10.0,Cu7.5 Sr2 Ca6 Cr0.5 O17.1,"[Element Cu, Element Sr, Element Ca, Element Cr, Element O]","{'Cu': 7.5, 'Sr': 2.0, 'Ca': 6.0, 'Cr': 0.5, 'O': 17.1}",Cuprates,5
Cu2.5Sr2Ca1Cr0.5O7.5,81.0,Cu2.5 Sr2 Ca1 Cr0.5 O7.5,"[Element Cu, Element Sr, Element Ca, Element Cr, Element O]","{'Cu': 2.5, 'Sr': 2.0, 'Ca': 1.0, 'Cr': 0.5, 'O': 7.5}",Cuprates,5
Cu3.5Sr2Ca2Cr0.5O9.55,103.0,Cu3.5 Sr2 Ca2 Cr0.5 O9.55,"[Element Cu, Element Sr, Element Ca, Element Cr, Element O]","{'Cu': 3.5, 'Sr': 2.0, 'Ca': 2.0, 'Cr': 0.5, 'O': 9.55}",Cuprates,5
Cu4.5Sr2Ca3Cr0.5O11.45,71.0,Cu4.5 Sr2 Ca3 Cr0.5 O11.45,"[Element Cu, Element Sr, Element Ca, Element Cr, Element O]","{'Cu': 4.5, 'Sr': 2.0, 'Ca': 3.0, 'Cr': 0.5, 'O': 11.45}",Cuprates,5
Cu5.5Sr2Ca4Cr0.5O13.35,65.0,Cu5.5 Sr2 Ca4 Cr0.5 O13.35,"[Element Cu, Element Sr, Element Ca, Element Cr, Element O]","{'Cu': 5.5, 'Sr': 2.0, 'Ca': 4.0, 'Cr': 0.5, 'O': 13.35}",Cuprates,5
Tl1Sr2Ba2Cu2C2.7N0.3O7,49.0,Tl1 Sr2 Ba2 Cu2 C2.7 N0.3 O7,"[Element Tl, Element Sr, Element Ba, Element Cu, Element C, Element N, Element O]","{'Tl': 1.0, 'Sr': 2.0, 'Ba': 2.0, 'Cu': 2.0, 'C': 2.7, 'N': 0.3, 'O': 7.0}",Cuprates,7
Tl1Sr2Ba2Cu2C2.4N0.6O7,49.0,Tl1 Sr2 Ba2 Cu2 C2.4 N0.6 O7,"[Element Tl, Element Sr, Element Ba, Element Cu, Element C, Element N, Element O]","{'Tl': 1.0, 'Sr': 2.0, 'Ba': 2.0, 'Cu': 2.0, 'C': 2.4, 'N': 0.6, 'O': 7.0}",Cuprates,7
Tl0.5Pb0.5Sr4Cu2C0.9N0.1O7,76.0,Tl0.5 Pb0.5 Sr4 Cu2 C0.9 N0.1 O7,"[Element Tl, Element Pb, Element Sr, Element Cu, Element C, Element N, Element O]","{'Tl': 0.5, 'Pb': 0.5, 'Sr': 4.0, 'Cu': 2.0, 'C': 0.9, 'N': 0.1, 'O': 7.0}",Cuprates,7