chemical_formula,Tc,composition,elements,stoichiometry,Category,num_elements
La1.5Ba1Ca0.5Cu3O6.801,30.0,La1.5 Ba1 Ca0.5 Cu3 O6.801,"[Element La, Element Ba, Element Ca, Element Cu, Element O]","{'La': 1.5, 'Ba': 1.0, 'Ca': 0.5, 'Cu': 3.0, 'O': 6.801}",Cuprates,5
La1.5Ba1Ca0.5Cu3O6.981,50.0,La1.5 Ba1 Ca0.5 Cu3 O6.981,"[Element La, Element Ba, Element Ca, Element Cu, Element O]","{'La': 1.5, 'Ba': 1.0, 'Ca': 0.5, 'Cu': 3.0, 'O': 6.981}",Cuprates,5
La1.5Ba1Ca0.5Cu3O7.126,67.0,La1.5 Ba1 Ca0.5 Cu3 O7.126,"[Element La, Element Ba, Element Ca, Element Cu, Element O]","{'La': 1.5, 'Ba': 1.0, 'Ca': 0.5, 'Cu': 3.0, 'O': 7.126}",Cuprates,5
La1.5Ba1Ca0.5Cu3O7.195,74.0,La1.5 Ba1 Ca0.5 Cu3 O7.195,"[Element La, Element Ba, Element Ca, Element Cu, Element O]","{'La': 1.5, 'Ba': 1.0, 'Ca': 0.5, 'Cu': 3.0, 'O': 7.195}",Cuprates,5
La1.94Sr0.06Cu1O4,14.0,La1.94 Sr0.06 Cu1 O4,"[Element La, Element Sr, Element Cu, Element O]","{'La': 1.94, 'Sr': 0.06, 'Cu': 1.0, 'O': 4.0}",Cuprates,4
La1.85Sr0.15Cu1O3.993,20.0,La1.85 Sr0.15 Cu1 O3.993,"[Element La, Element Sr, Element Cu, Element O]","{'La': 1.85, 'Sr': 0.15, 'Cu': 1.0, 'O': 3.993}",Cuprates,4
La1.85Sr0.15Cu1O3.987,12.0,La1.85 Sr0.15 Cu1 O3.987,"[Element La, Element Sr, Element Cu, Element O]","{'La': 1.85, 'Sr': 0.15, 'Cu': 1.0, 'O': 3.987}",Cuprates,4
B0.6C0.4Sr0.5Ba1.5Ca2Cu3O9,119.0,B0.6 C0.4 Sr0.5 Ba1.5 Ca2 Cu3 O9,"[Element B, Element C, Element Sr, Element Ba, Element Ca, Element Cu, Element O]","{'B': 0.6, 'C': 0.4, 'Sr': 0.5, 'Ba': 1.5, 'Ca': 2.0, 'Cu': 3.0, 'O': 9.0}",Cuprates,7
La1.86Sr0.14Cu1O4,40.0,La1.86 Sr0.14 Cu1 O4,"[Element La, Element Sr, Element Cu, Element O]","{'La': 1.86, 'Sr': 0.14, 'Cu': 1.0, 'O': 4.0}",Cuprates,4
Pr1Ba2Cu3O6.6,60.0,Pr1 Ba2 Cu3 O6.6,"[Element Pr, Element Ba, Element Cu, Element O]","{'Pr': 1.0, 'Ba': 2.0, 'Cu': 3.0, 'O': 6.6}",Cuprates,4
Pr1Ba2Cu3O6.8,81.0,Pr1 Ba2 Cu3 O6.8,"[Element Pr, Element Ba, Element Cu, Element O]","{'Pr': 1.0, 'Ba': 2.0, 'Cu': 3.0, 'O': 6.8}",Cuprates,4
La2Cu1O4.012,32.0,La2 Cu1 O4.012,"[Element La, Element Cu, Element O]","{'La': 2.0, 'Cu': 1.0, 'O': 4.012}",Cuprates,3
La2Cu1O4.022,42.0,La2 Cu1 O4.022,"[Element La, Element Cu, Element O]","{'La': 2.0, 'Cu': 1.0, 'O': 4.022}",Cuprates,3
La1.835Sr0.165Cu0.995Ni0.005O4,33.0,La1.835 Sr0.165 Cu0.995 Ni0.005 O4,"[Element La, Element Sr, Element Cu, Element Ni, Element O]","{'La': 1.835, 'Sr': 0.165, 'Cu': 0.995, 'Ni': 0.005, 'O': 4.0}",Cuprates,5
La1.825Sr0.175Cu0.985Ni0.015O4,25.0,La1.825 Sr0.175 Cu0.985 Ni0.015 O4,"[Element La, Element Sr, Element Cu, Element Ni, Element O]","{'La': 1.825, 'Sr': 0.175, 'Cu': 0.985, 'Ni': 0.015, 'O': 4.0}",Cuprates,5
La1.78Sr0.22Cu0.92Ni0.08O4,21.0,La1.78 Sr0.22 Cu0.92 Ni0.08 O4,"[Element La, Element Sr, Element Cu, Element Ni, Element O]","{'La': 1.78, 'Sr': 0.22, 'Cu': 0.92, 'Ni': 0.08, 'O': 4.0}",Cuprates,5
La1.775Sr0.225Cu0.995Ni0.005O4,21.0,La1.775 Sr0.225 Cu0.995 Ni0.005 O4,"[Element La, Element Sr, Element Cu, Element Ni, Element O]","{'La': 1.775, 'Sr': 0.225, 'Cu': 0.995, 'Ni': 0.005, 'O': 4.0}",Cuprates,5
La1.77Sr0.23Cu0.99Ni0.01O4,18.0,La1.77 Sr0.23 Cu0.99 Ni0.01 O4,"[Element La, Element Sr, Element Cu, Element Ni, Element O]","{'La': 1.77, 'Sr': 0.23, 'Cu': 0.99, 'Ni': 0.01, 'O': 4.0}",Cuprates,5
La1.865Sr0.135Cu1O4,31.0,La1.865 Sr0.135 Cu1 O4,"[Element La, Element Sr, Element Cu, Element O]","{'La': 1.865, 'Sr': 0.135, 'Cu': 1.0, 'O': 4.0}",Cuprates,4
La1.79Sr0.21Cu1O4,27.0,La1.79 Sr0.21 Cu1 O4,"[Element La, Element Sr, Element Cu, Element O]","{'La': 1.79, 'Sr': 0.21, 'Cu': 1.0, 'O': 4.0}",Cuprates,4
La1.7575Pr0.0925Sr0.15Cu1O4,37.0,La1.7575 Pr0.0925 Sr0.15 Cu1 O4,"[Element La, Element Pr, Element Sr, Element Cu, Element O]","{'La': 1.7575, 'Pr': 0.0925, 'Sr': 0.15, 'Cu': 1.0, 'O': 4.0}",Cuprates,5
La1.665Pr0.185Sr0.15Cu1O4,35.0,La1.665 Pr0.185 Sr0.15 Cu1 O4,"[Element La, Element Pr, Element Sr, Element Cu, Element O]","{'La': 1.665, 'Pr': 0.185, 'Sr': 0.15, 'Cu': 1.0, 'O': 4.0}",Cuprates,5
La1.48Pr0.37Sr0.15Cu1O4,34.0,La1.48 Pr0.37 Sr0.15 Cu1 O4,"[Element La, Element Pr, Element Sr, Element Cu, Element O]","{'La': 1.48, 'Pr': 0.37, 'Sr': 0.15, 'Cu': 1.0, 'O': 4.0}",Cuprates,5
La1.295Pr0.555Sr0.15Cu1O4,33.0,La1.295 Pr0.555 Sr0.15 Cu1 O4,"[Element La, Element Pr, Element Sr, Element Cu, Element O]","{'La': 1.295, 'Pr': 0.555, 'Sr': 0.15, 'Cu': 1.0, 'O': 4.0}",Cuprates,5
La1.13Pr0.72Sr0.15Cu1O4,32.0,La1.13 Pr0.72 Sr0.15 Cu1 O4,"[Element La, Element Pr, Element Sr, Element Cu, Element O]","{'La': 1.13, 'Pr': 0.72, 'Sr': 0.15, 'Cu': 1.0, 'O': 4.0}",Cuprates,5
La0.925Pr0.925Sr0.15Cu1O4,32.0,La0.925 Pr0.925 Sr0.15 Cu1 O4,"[Element La, Element Pr, Element Sr, Element Cu, Element O]","{'La': 0.925, 'Pr': 0.925, 'Sr': 0.15, 'Cu': 1.0, 'O': 4.0}",Cuprates,5
La1.87Sr0.13Cu1O4,32.0,La1.87 Sr0.13 Cu1 O4,"[Element La, Element Sr, Element Cu, Element O]","{'La': 1.87, 'Sr': 0.13, 'Cu': 1.0, 'O': 4.0}",Cuprates,4
La1.85Sr0.15Cu0.995Ni0.005O4,36.1,La1.85 Sr0.15 Cu0.995 Ni0.005 O4,"[Element La, Element Sr, Element Cu, Element Ni, Element O]","{'La': 1.85, 'Sr': 0.15, 'Cu': 0.995, 'Ni': 0.005, 'O': 4.0}",Cuprates,5
La1.85Sr0.15Cu0.985Ni0.015O4,31.7,La1.85 Sr0.15 Cu0.985 Ni0.015 O4,"[Element La, Element Sr, Element Cu, Element Ni, Element O]","{'La': 1.85, 'Sr': 0.15, 'Cu': 0.985, 'Ni': 0.015, 'O': 4.0}",Cuprates,5
La1.905Ba0.095Cu1O4,31.0,La1.905 Ba0.095 Cu1 O4,"[Element La, Element Ba, Element Cu, Element O]","{'La': 1.905, 'Ba': 0.095, 'Cu': 1.0, 'O': 4.0}",Cuprates,4
Bi2Sr2Ca1Cu2O8.17,85.5,Bi2 Sr2 Ca1 Cu2 O8.17,"[Element Bi, Element Sr, Element Ca, Element Cu, Element O]","{'Bi': 2.0, 'Sr': 2.0, 'Ca': 1.0, 'Cu': 2.0, 'O': 8.17}",Cuprates,5
Bi2Sr2Ca1Cu2O8.14,81.0,Bi2 Sr2 Ca1 Cu2 O8.14,"[Element Bi, Element Sr, Element Ca, Element Cu, Element O]","{'Bi': 2.0, 'Sr': 2.0, 'Ca': 1.0, 'Cu': 2.0, 'O': 8.14}",Cuprates,5
Eu1Ba2Cu3O6.5,92.0,Eu1 Ba2 Cu3 O6.5,"[Element Eu, Element Ba, Element Cu, Element O]","{'Eu': 1.0, 'Ba': 2.0, 'Cu': 3.0, 'O': 6.5}",Cuprates,4
Hg0.8Mn0.2Ba2Cu1O4.2,91.0,Hg0.8 Mn0.2 Ba2 Cu1 O4.2,"[Element Hg, Element Mn, Element Ba, Element Cu, Element O]","{'Hg': 0.8, 'Mn': 0.2, 'Ba': 2.0, 'Cu': 1.0, 'O': 4.2}",Cuprates,5
Hg0.8Mn0.2Ba2Ca1Cu2O6.2,114.0,Hg0.8 Mn0.2 Ba2 Ca1 Cu2 O6.2,"[Element Hg, Element Mn, Element Ba, Element Ca, Element Cu, Element O]","{'Hg': 0.8, 'Mn': 0.2, 'Ba': 2.0, 'Ca': 1.0, 'Cu': 2.0, 'O': 6.2}",Cuprates,6
Hg0.8Ge0.2Ba2Ca1Cu2O6.2,124.0,Hg0.8 Ge0.2 Ba2 Ca1 Cu2 O6.2,"[Element Hg, Element Ge, Element Ba, Element Ca, Element Cu, Element O]","{'Hg': 0.8, 'Ge': 0.2, 'Ba': 2.0, 'Ca': 1.0, 'Cu': 2.0, 'O': 6.2}",Cuprates,6
Bi2Sr2Ca1.2Cu3.22O8,70.0,Bi2 Sr2 Ca1.2 Cu3.22 O8,"[Element Bi, Element Sr, Element Ca, Element Cu, Element O]","{'Bi': 2.0, 'Sr': 2.0, 'Ca': 1.2, 'Cu': 3.22, 'O': 8.0}",Cuprates,5
Hg1Ba2Cu1FO4,97.0,Hg1 Ba2 Cu1 F1 O4,"[Element Hg, Element Ba, Element Cu, Element F, Element O]","{'Hg': 1.0, 'Ba': 2.0, 'Cu': 1.0, 'F': 1.0, 'O': 4.0}",Cuprates,5
Hg1Ba2Ca2Cu3O8.28,118.5,Hg1 Ba2 Ca2 Cu3 O8.28,"[Element Hg, Element Ba, Element Ca, Element Cu, Element O]","{'Hg': 1.0, 'Ba': 2.0, 'Ca': 2.0, 'Cu': 3.0, 'O': 8.28}",Cuprates,5
Hg1Ba2Ca2Cu3O8.35,134.0,Hg1 Ba2 Ca2 Cu3 O8.35,"[Element Hg, Element Ba, Element Ca, Element Cu, Element O]","{'Hg': 1.0, 'Ba': 2.0, 'Ca': 2.0, 'Cu': 3.0, 'O': 8.35}",Cuprates,5
Bi2Sr1.76La0.24Cu1O6,24.0,Bi2 Sr1.76 La0.24 Cu1 O6,"[Element Bi, Element Sr, Element La, Element Cu, Element O]","{'Bi': 2.0, 'Sr': 1.76, 'La': 0.24, 'Cu': 1.0, 'O': 6.0}",Cuprates,5
Bi2Sr1.7La0.3Cu1O6,30.0,Bi2 Sr1.7 La0.3 Cu1 O6,"[Element Bi, Element Sr, Element La, Element Cu, Element O]","{'Bi': 2.0, 'Sr': 1.7, 'La': 0.3, 'Cu': 1.0, 'O': 6.0}",Cuprates,5
Bi2Sr1.56La0.44Cu1O6,33.0,Bi2 Sr1.56 La0.44 Cu1 O6,"[Element Bi, Element Sr, Element La, Element Cu, Element O]","{'Bi': 2.0, 'Sr': 1.56, 'La': 0.44, 'Cu': 1.0, 'O': 6.0}",Cuprates,5
Bi2Sr1.43La0.57Cu1O6,28.5,Bi2 Sr1.43 La0.57 Cu1 O6,"[Element Bi, Element Sr, Element La, Element Cu, Element O]","{'Bi': 2.0, 'Sr': 1.43, 'La': 0.57, 'Cu': 1.0, 'O': 6.0}",Cuprates,5
Bi2Sr1.34La0.66Cu1O6,20.0,Bi2 Sr1.34 La0.66 Cu1 O6,"[Element Bi, Element Sr, Element La, Element Cu, Element O]","{'Bi': 2.0, 'Sr': 1.34, 'La': 0.66, 'Cu': 1.0, 'O': 6.0}",Cuprates,5
Ca5.84Sr4.02Bi0.14Cu15.84O29,72.0,Ca5.84 Sr4.02 Bi0.14 Cu15.84 O29,"[Element Ca, Element Sr, Element Bi, Element Cu, Element O]","{'Ca': 5.84, 'Sr': 4.02, 'Bi': 0.14, 'Cu': 15.84, 'O': 29.0}",Cuprates,5
La1Cu1O4,23.0,La1 Cu1 O4,"[Element La, Element Cu, Element O]","{'La': 1.0, 'Cu': 1.0, 'O': 4.0}",Cuprates,3
Eu1.5Ce0.5Sr2Cu1Ti1O10,22.0,Eu1.5 Ce0.5 Sr2 Cu1 Ti1 O10,"[Element Eu, Element Ce, Element Sr, Element Cu, Element Ti, Element O]","{'Eu': 1.5, 'Ce': 0.5, 'Sr': 2.0, 'Cu': 1.0, 'Ti': 1.0, 'O': 10.0}",Cuprates,6
Er1Ba2Cu3O6.93,91.0,Er1 Ba2 Cu3 O6.93,"[Element Er, Element Ba, Element Cu, Element O]","{'Er': 1.0, 'Ba': 2.0, 'Cu': 3.0, 'O': 6.93}",Cuprates,4
Er1Ba2Cu2.97Fe0.03O6.94,88.0,Er1 Ba2 Cu2.97 Fe0.03 O6.94,"[Element Er, Element Ba, Element Cu, Element Fe, Element O]","{'Er': 1.0, 'Ba': 2.0, 'Cu': 2.97, 'Fe': 0.03, 'O': 6.94}",Cuprates,5
Er1Ba2Cu2.91Fe0.09O6.96,83.0,Er1 Ba2 Cu2.91 Fe0.09 O6.96,"[Element Er, Element Ba, Element Cu, Element Fe, Element O]","{'Er': 1.0, 'Ba': 2.0, 'Cu': 2.91, 'Fe': 0.09, 'O': 6.96}",Cuprates,5
Er1Ba2Cu2.82Fe0.18O6.97,72.0,Er1 Ba2 Cu2.82 Fe0.18 O6.97,"[Element Er, Element Ba, Element Cu, Element Fe, Element O]","{'Er': 1.0, 'Ba': 2.0, 'Cu': 2.82, 'Fe': 0.18, 'O': 6.97}",Cuprates,5
Sm1Ba1.9Pr0.1Cu3O6.99,56.4,Sm1 Ba1.9 Pr0.1 Cu3 O6.99,"[Element Sm, Element Ba, Element Pr, Element Cu, Element O]","{'Sm': 1.0, 'Ba': 1.9, 'Pr': 0.1, 'Cu': 3.0, 'O': 6.99}",Cuprates,5
Sm1Ba1.85Pr0.15Cu3O7.02,35.0,Sm1 Ba1.85 Pr0.15 Cu3 O7.02,"[Element Sm, Element Ba, Element Pr, Element Cu, Element O]","{'Sm': 1.0, 'Ba': 1.85, 'Pr': 0.15, 'Cu': 3.0, 'O': 7.02}",Cuprates,5
Sm1Ba1.8Pr0.2Cu3O7.04,26.5,Sm1 Ba1.8 Pr0.2 Cu3 O7.04,"[Element Sm, Element Ba, Element Pr, Element Cu, Element O]","{'Sm': 1.0, 'Ba': 1.8, 'Pr': 0.2, 'Cu': 3.0, 'O': 7.04}",Cuprates,5
Pr1.5Ce0.5Sr2Cu2Nb1O10,28.0,Pr1.5 Ce0.5 Sr2 Cu2 Nb1 O10,"[Element Pr, Element Ce, Element Sr, Element Cu, Element Nb, Element O]","{'Pr': 1.5, 'Ce': 0.5, 'Sr': 2.0, 'Cu': 2.0, 'Nb': 1.0, 'O': 10.0}",Cuprates,6
Hg1Ba2Cu1O4.05,73.5,Hg1 Ba2 Cu1 O4.05,"[Element Hg, Element Ba, Element Cu, Element O]","{'Hg': 1.0, 'Ba': 2.0, 'Cu': 1.0, 'O': 4.05}",Cuprates,4
Hg1Ba2Cu1O4.2,94.2,Hg1 Ba2 Cu1 O4.2,"[Element Hg, Element Ba, Element Cu, Element O]","{'Hg': 1.0, 'Ba': 2.0, 'Cu': 1.0, 'O': 4.2}",Cuprates,4
Hg0.9Re0.1Ba2Cu1O4.33,87.2,Hg0.9 Re0.1 Ba2 Cu1 O4.33,"[Element Hg, Element Re, Element Ba, Element Cu, Element O]","{'Hg': 0.9, 'Re': 0.1, 'Ba': 2.0, 'Cu': 1.0, 'O': 4.33}",Cuprates,5
Hg0.9Re0.1Ba2Cu1O4.35,90.5,Hg0.9 Re0.1 Ba2 Cu1 O4.35,"[Element Hg, Element Re, Element Ba, Element Cu, Element O]","{'Hg': 0.9, 'Re': 0.1, 'Ba': 2.0, 'Cu': 1.0, 'O': 4.35}",Cuprates,5
Hg0.9Re0.1Ba2Cu1O4.41,94.5,Hg0.9 Re0.1 Ba2 Cu1 O4.41,"[Element Hg, Element Re, Element Ba, Element Cu, Element O]","{'Hg': 0.9, 'Re': 0.1, 'Ba': 2.0, 'Cu': 1.0, 'O': 4.41}",Cuprates,5
Hg0.85Re0.15Ba2Cu1O4.49,93.7,Hg0.85 Re0.15 Ba2 Cu1 O4.49,"[Element Hg, Element Re, Element Ba, Element Cu, Element O]","{'Hg': 0.85, 'Re': 0.15, 'Ba': 2.0, 'Cu': 1.0, 'O': 4.49}",Cuprates,5
Hg0.85Re0.15Ba2Cu1O4.52,94.8,Hg0.85 Re0.15 Ba2 Cu1 O4.52,"[Element Hg, Element Re, Element Ba, Element Cu, Element O]","{'Hg': 0.85, 'Re': 0.15, 'Ba': 2.0, 'Cu': 1.0, 'O': 4.52}",Cuprates,5
Hg0.85Re0.15Ba2Cu1O4.55,93.7,Hg0.85 Re0.15 Ba2 Cu1 O4.55,"[Element Hg, Element Re, Element Ba, Element Cu, Element O]","{'Hg': 0.85, 'Re': 0.15, 'Ba': 2.0, 'Cu': 1.0, 'O': 4.55}",Cuprates,5
Hg0.85Re0.15Ba2Cu1O4.53,96.3,Hg0.85 Re0.15 Ba2 Cu1 O4.53,"[Element Hg, Element Re, Element Ba, Element Cu, Element O]","{'Hg': 0.85, 'Re': 0.15, 'Ba': 2.0, 'Cu': 1.0, 'O': 4.53}",Cuprates,5
La1.9Sr0.1Cu1O4.01,29.0,La1.9 Sr0.1 Cu1 O4.01,"[Element La, Element Sr, Element Cu, Element O]","{'La': 1.9, 'Sr': 0.1, 'Cu': 1.0, 'O': 4.01}",Cuprates,4
La1.85Sr0.15Cu1O3.99,33.0,La1.85 Sr0.15 Cu1 O3.99,"[Element La, Element Sr, Element Cu, Element O]","{'La': 1.85, 'Sr': 0.15, 'Cu': 1.0, 'O': 3.99}",Cuprates,4
La1.75Sr0.25Cu1O3.93,15.0,La1.75 Sr0.25 Cu1 O3.93,"[Element La, Element Sr, Element Cu, Element O]","{'La': 1.75, 'Sr': 0.25, 'Cu': 1.0, 'O': 3.93}",Cuprates,4
La1.92Ca0.08Cu1O4,16.0,La1.92 Ca0.08 Cu1 O4,"[Element La, Element Ca, Element Cu, Element O]","{'La': 1.92, 'Ca': 0.08, 'Cu': 1.0, 'O': 4.0}",Cuprates,4
La1.91Ca0.09Cu1O4,20.0,La1.91 Ca0.09 Cu1 O4,"[Element La, Element Ca, Element Cu, Element O]","{'La': 1.91, 'Ca': 0.09, 'Cu': 1.0, 'O': 4.0}",Cuprates,4
La1.9Ca0.1Cu1O4,22.0,La1.9 Ca0.1 Cu1 O4,"[Element La, Element Ca, Element Cu, Element O]","{'La': 1.9, 'Ca': 0.1, 'Cu': 1.0, 'O': 4.0}",Cuprates,4
La1.89Ca0.11Cu1O4,23.0,La1.89 Ca0.11 Cu1 O4,"[Element La, Element Ca, Element Cu, Element O]","{'La': 1.89, 'Ca': 0.11, 'Cu': 1.0, 'O': 4.0}",Cuprates,4
La1.885Ca0.115Cu1O4,23.0,La1.885 Ca0.115 Cu1 O4,"[Element La, Element Ca, Element Cu, Element O]","{'La': 1.885, 'Ca': 0.115, 'Cu': 1.0, 'O': 4.0}",Cuprates,4
La1.88Ca0.12Cu1O4,24.0,La1.88 Ca0.12 Cu1 O4,"[Element La, Element Ca, Element Cu, Element O]","{'La': 1.88, 'Ca': 0.12, 'Cu': 1.0, 'O': 4.0}",Cuprates,4
La1.875Ca0.125Cu1O4,26.0,La1.875 Ca0.125 Cu1 O4,"[Element La, Element Ca, Element Cu, Element O]","{'La': 1.875, 'Ca': 0.125, 'Cu': 1.0, 'O': 4.0}",Cuprates,4
La1.87Ca0.13Cu1O4,28.0,La1.87 Ca0.13 Cu1 O4,"[Element La, Element Ca, Element Cu, Element O]","{'La': 1.87, 'Ca': 0.13, 'Cu': 1.0, 'O': 4.0}",Cuprates,4
La1.86Ca0.14Cu1O4,32.0,La1.86 Ca0.14 Cu1 O4,"[Element La, Element Ca, Element Cu, Element O]","{'La': 1.86, 'Ca': 0.14, 'Cu': 1.0, 'O': 4.0}",Cuprates,4
La1.84Ca0.16Cu1O4,34.0,La1.84 Ca0.16 Cu1 O4,"[Element La, Element Ca, Element Cu, Element O]","{'La': 1.84, 'Ca': 0.16, 'Cu': 1.0, 'O': 4.0}",Cuprates,4
La1.83Ca0.17Cu1O4,34.0,La1.83 Ca0.17 Cu1 O4,"[Element La, Element Ca, Element Cu, Element O]","{'La': 1.83, 'Ca': 0.17, 'Cu': 1.0, 'O': 4.0}",Cuprates,4
La1.82Ca0.18Cu1O4,33.0,La1.82 Ca0.18 Cu1 O4,"[Element La, Element Ca, Element Cu, Element O]","{'La': 1.82, 'Ca': 0.18, 'Cu': 1.0, 'O': 4.0}",Cuprates,4
La1.81Ca0.19Cu1O4,32.0,La1.81 Ca0.19 Cu1 O4,"[Element La, Element Ca, Element Cu, Element O]","{'La': 1.81, 'Ca': 0.19, 'Cu': 1.0, 'O': 4.0}",Cuprates,4
La1.8Ca0.2Cu1O4,30.0,La1.8 Ca0.2 Cu1 O4,"[Element La, Element Ca, Element Cu, Element O]","{'La': 1.8, 'Ca': 0.2, 'Cu': 1.0, 'O': 4.0}",Cuprates,4
Bi2Sr2Ca1Cu2O8.2135,70.0,Bi2 Sr2 Ca1 Cu2 O8.2135,"[Element Bi, Element Sr, Element Ca, Element Cu, Element O]","{'Bi': 2.0, 'Sr': 2.0, 'Ca': 1.0, 'Cu': 2.0, 'O': 8.2135}",Cuprates,5
Bi2Sr2Ca1Cu2O8.224,89.0,Bi2 Sr2 Ca1 Cu2 O8.224,"[Element Bi, Element Sr, Element Ca, Element Cu, Element O]","{'Bi': 2.0, 'Sr': 2.0, 'Ca': 1.0, 'Cu': 2.0, 'O': 8.224}",Cuprates,5
Bi2Sr2Ca1Cu2O8.245,90.0,Bi2 Sr2 Ca1 Cu2 O8.245,"[Element Bi, Element Sr, Element Ca, Element Cu, Element O]","{'Bi': 2.0, 'Sr': 2.0, 'Ca': 1.0, 'Cu': 2.0, 'O': 8.245}",Cuprates,5
Bi2Sr2Ca1Cu1.98Ni0.02O8,78.0,Bi2 Sr2 Ca1 Cu1.98 Ni0.02 O8,"[Element Bi, Element Sr, Element Ca, Element Cu, Element Ni, Element O]","{'Bi': 2.0, 'Sr': 2.0, 'Ca': 1.0, 'Cu': 1.98, 'Ni': 0.02, 'O': 8.0}",Cuprates,6
Bi2Sr2Ca1Cu1.97Ni0.03O8,77.0,Bi2 Sr2 Ca1 Cu1.97 Ni0.03 O8,"[Element Bi, Element Sr, Element Ca, Element Cu, Element Ni, Element O]","{'Bi': 2.0, 'Sr': 2.0, 'Ca': 1.0, 'Cu': 1.97, 'Ni': 0.03, 'O': 8.0}",Cuprates,6
Bi2Sr2Ca1Cu1.952Ni0.048O8,74.0,Bi2 Sr2 Ca1 Cu1.952 Ni0.048 O8,"[Element Bi, Element Sr, Element Ca, Element Cu, Element Ni, Element O]","{'Bi': 2.0, 'Sr': 2.0, 'Ca': 1.0, 'Cu': 1.952, 'Ni': 0.048, 'O': 8.0}",Cuprates,6
Sr3.5Ca11.5Cu24O41,9.0,Sr3.5 Ca11.5 Cu24 O41,"[Element Sr, Element Ca, Element Cu, Element O]","{'Sr': 3.5, 'Ca': 11.5, 'Cu': 24.0, 'O': 41.0}",Cuprates,4
Tm1Ba2Cu3O6.41,19.0,Tm1 Ba2 Cu3 O6.41,"[Element Tm, Element Ba, Element Cu, Element O]","{'Tm': 1.0, 'Ba': 2.0, 'Cu': 3.0, 'O': 6.41}",Cuprates,4
Tm1Ba2Cu3O6.44,28.0,Tm1 Ba2 Cu3 O6.44,"[Element Tm, Element Ba, Element Cu, Element O]","{'Tm': 1.0, 'Ba': 2.0, 'Cu': 3.0, 'O': 6.44}",Cuprates,4
Tm1Ba2Cu3O6.49,50.0,Tm1 Ba2 Cu3 O6.49,"[Element Tm, Element Ba, Element Cu, Element O]","{'Tm': 1.0, 'Ba': 2.0, 'Cu': 3.0, 'O': 6.49}",Cuprates,4
La1.93Sr0.07Cu1O4,19.0,La1.93 Sr0.07 Cu1 O4,"[Element La, Element Sr, Element Cu, Element O]","{'La': 1.93, 'Sr': 0.07, 'Cu': 1.0, 'O': 4.0}",Cuprates,4
La1.85Sr0.15Cu1O4.01,36.0,La1.85 Sr0.15 Cu1 O4.01,"[Element La, Element Sr, Element Cu, Element O]","{'La': 1.85, 'Sr': 0.15, 'Cu': 1.0, 'O': 4.01}",Cuprates,4
La1.85Sr0.12Ca0.016Ba0.014Cu1O3.99,34.1,La1.85 Sr0.12 Ca0.016 Ba0.014 Cu1 O3.99,"[Element La, Element Sr, Element Ca, Element Ba, Element Cu, Element O]","{'La': 1.85, 'Sr': 0.12, 'Ca': 0.016, 'Ba': 0.014, 'Cu': 1.0, 'O': 3.99}",Cuprates,6
La1.85Sr0.09Ca0.034Ba0.026Cu1O3.99,32.2,La1.85 Sr0.09 Ca0.034 Ba0.026 Cu1 O3.99,"[Element La, Element Sr, Element Ca, Element Ba, Element Cu, Element O]","{'La': 1.85, 'Sr': 0.09, 'Ca': 0.034, 'Ba': 0.026, 'Cu': 1.0, 'O': 3.99}",Cuprates,6
La1.85Sr0.06Ca0.05Ba0.04Cu1O3.99,30.0,La1.85 Sr0.06 Ca0.05 Ba0.04 Cu1 O3.99,"[Element La, Element Sr, Element Ca, Element Ba, Element Cu, Element O]","{'La': 1.85, 'Sr': 0.06, 'Ca': 0.05, 'Ba': 0.04, 'Cu': 1.0, 'O': 3.99}",Cuprates,6
La1.85Sr0.016Ca0.074Ba0.06Cu1O4.01,25.4,La1.85 Sr0.016 Ca0.074 Ba0.06 Cu1 O4.01,"[Element La, Element Sr, Element Ca, Element Ba, Element Cu, Element O]","{'La': 1.85, 'Sr': 0.016, 'Ca': 0.074, 'Ba': 0.06, 'Cu': 1.0, 'O': 4.01}",Cuprates,6
Bi2Sr2Ca1Cu2O8.3,70.0,Bi2 Sr2 Ca1 Cu2 O8.3,"[Element Bi, Element Sr, Element Ca, Element Cu, Element O]","{'Bi': 2.0, 'Sr': 2.0, 'Ca': 1.0, 'Cu': 2.0, 'O': 8.3}",Cuprates,5
Eu0.9Pr0.1Ba2Cu3O6.78,83.0,Eu0.9 Pr0.1 Ba2 Cu3 O6.78,"[Element Eu, Element Pr, Element Ba, Element Cu, Element O]","{'Eu': 0.9, 'Pr': 0.1, 'Ba': 2.0, 'Cu': 3.0, 'O': 6.78}",Cuprates,5
Eu0.8Pr0.2Ba2Cu3O6.7,65.0,Eu0.8 Pr0.2 Ba2 Cu3 O6.7,"[Element Eu, Element Pr, Element Ba, Element Cu, Element O]","{'Eu': 0.8, 'Pr': 0.2, 'Ba': 2.0, 'Cu': 3.0, 'O': 6.7}",Cuprates,5
Eu0.7Pr0.3Ba2Cu3O6.66,41.0,Eu0.7 Pr0.3 Ba2 Cu3 O6.66,"[Element Eu, Element Pr, Element Ba, Element Cu, Element O]","{'Eu': 0.7, 'Pr': 0.3, 'Ba': 2.0, 'Cu': 3.0, 'O': 6.66}",Cuprates,5
Eu1Ba1.9Pr0.1Cu3O6.75,73.0,Eu1 Ba1.9 Pr0.1 Cu3 O6.75,"[Element Eu, Element Ba, Element Pr, Element Cu, Element O]","{'Eu': 1.0, 'Ba': 1.9, 'Pr': 0.1, 'Cu': 3.0, 'O': 6.75}",Cuprates,5
Eu1Ba1.8Pr0.2Cu3O6.69,46.0,Eu1 Ba1.8 Pr0.2 Cu3 O6.69,"[Element Eu, Element Ba, Element Pr, Element Cu, Element O]","{'Eu': 1.0, 'Ba': 1.8, 'Pr': 0.2, 'Cu': 3.0, 'O': 6.69}",Cuprates,5
Eu0.6Pr0.4Ba1.7Sr0.3Cu3O6.93,28.0,Eu0.6 Pr0.4 Ba1.7 Sr0.3 Cu3 O6.93,"[Element Eu, Element Pr, Element Ba, Element Sr, Element Cu, Element O]","{'Eu': 0.6, 'Pr': 0.4, 'Ba': 1.7, 'Sr': 0.3, 'Cu': 3.0, 'O': 6.93}",Cuprates,6
Eu0.6Pr0.4Ba1.6Sr0.4Cu3O7,29.0,Eu0.6 Pr0.4 Ba1.6 Sr0.4 Cu3 O7,"[Element Eu, Element Pr, Element Ba, Element Sr, Element Cu, Element O]","{'Eu': 0.6, 'Pr': 0.4, 'Ba': 1.6, 'Sr': 0.4, 'Cu': 3.0, 'O': 7.0}",Cuprates,6
Eu0.6Pr0.4Ba1.5Sr0.5Cu3O6.89,34.0,Eu0.6 Pr0.4 Ba1.5 Sr0.5 Cu3 O6.89,"[Element Eu, Element Pr, Element Ba, Element Sr, Element Cu, Element O]","{'Eu': 0.6, 'Pr': 0.4, 'Ba': 1.5, 'Sr': 0.5, 'Cu': 3.0, 'O': 6.89}",Cuprates,6
Eu1Ba1.5Pr0.3Sr0.2Cu3O6.81,28.0,Eu1 Ba1.5 Pr0.3 Sr0.2 Cu3 O6.81,"[Element Eu, Element Ba, Element Pr, Element Sr, Element Cu, Element O]","{'Eu': 1.0, 'Ba': 1.5, 'Pr': 0.3, 'Sr': 0.2, 'Cu': 3.0, 'O': 6.81}",Cuprates,6
Eu1Ba1.4Pr0.3Sr0.3Cu3O6.92,29.0,Eu1 Ba1.4 Pr0.3 Sr0.3 Cu3 O6.92,"[Element Eu, Element Ba, Element Pr, Element Sr, Element Cu, Element O]","{'Eu': 1.0, 'Ba': 1.4, 'Pr': 0.3, 'Sr': 0.3, 'Cu': 3.0, 'O': 6.92}",Cuprates,6
Eu1Ba1.3Pr0.3Sr0.4Cu3O7,30.0,Eu1 Ba1.3 Pr0.3 Sr0.4 Cu3 O7,"[Element Eu, Element Ba, Element Pr, Element Sr, Element Cu, Element O]","{'Eu': 1.0, 'Ba': 1.3, 'Pr': 0.3, 'Sr': 0.4, 'Cu': 3.0, 'O': 7.0}",Cuprates,6