chemical_formula,Tc,composition,elements,stoichiometry,Category,num_elements
La1.82Sr0.18Cu1O3.987,33.0,La1.82 Sr0.18 Cu1 O3.987,"[Element La, Element Sr, Element Cu, Element O]","{'La': 1.82, 'Sr': 0.18, 'Cu': 1.0, 'O': 3.987}",Cuprates,4
La1.82Sr0.18Cu1O3.972,28.0,La1.82 Sr0.18 Cu1 O3.972,"[Element La, Element Sr, Element Cu, Element O]","{'La': 1.82, 'Sr': 0.18, 'Cu': 1.0, 'O': 3.972}",Cuprates,4
La1.82Sr0.18Cu1O3.967,22.0,La1.82 Sr0.18 Cu1 O3.967,"[Element La, Element Sr, Element Cu, Element O]","{'La': 1.82, 'Sr': 0.18, 'Cu': 1.0, 'O': 3.967}",Cuprates,4
La1.9Sr0.1Ca1Cu2O6.03,43.0,La1.9 Sr0.1 Ca1 Cu2 O6.03,"[Element La, Element Sr, Element Ca, Element Cu, Element O]","{'La': 1.9, 'Sr': 0.1, 'Ca': 1.0, 'Cu': 2.0, 'O': 6.03}",Cuprates,5
La1.85Sr0.15Ca1Cu2O6.03,47.5,La1.85 Sr0.15 Ca1 Cu2 O6.03,"[Element La, Element Sr, Element Ca, Element Cu, Element O]","{'La': 1.85, 'Sr': 0.15, 'Ca': 1.0, 'Cu': 2.0, 'O': 6.03}",Cuprates,5
La1.8Sr0.2Ca1Cu2O6.03,51.0,La1.8 Sr0.2 Ca1 Cu2 O6.03,"[Element La, Element Sr, Element Ca, Element Cu, Element O]","{'La': 1.8, 'Sr': 0.2, 'Ca': 1.0, 'Cu': 2.0, 'O': 6.03}",Cuprates,5
La1.77Sr0.23Ca1Cu2O6.03,51.5,La1.77 Sr0.23 Ca1 Cu2 O6.03,"[Element La, Element Sr, Element Ca, Element Cu, Element O]","{'La': 1.77, 'Sr': 0.23, 'Ca': 1.0, 'Cu': 2.0, 'O': 6.03}",Cuprates,5
La2Tl2Sr2Cu3O11,37.0,La2 Tl2 Sr2 Cu3 O11,"[Element La, Element Tl, Element Sr, Element Cu, Element O]","{'La': 2.0, 'Tl': 2.0, 'Sr': 2.0, 'Cu': 3.0, 'O': 11.0}",Cuprates,5
Pr2Tl2Sr2Cu3O11,43.0,Pr2 Tl2 Sr2 Cu3 O11,"[Element Pr, Element Tl, Element Sr, Element Cu, Element O]","{'Pr': 2.0, 'Tl': 2.0, 'Sr': 2.0, 'Cu': 3.0, 'O': 11.0}",Cuprates,5
Ho1Ba2Cu3O6.9,91.5,Ho1 Ba2 Cu3 O6.9,"[Element Ho, Element Ba, Element Cu, Element O]","{'Ho': 1.0, 'Ba': 2.0, 'Cu': 3.0, 'O': 6.9}",Cuprates,4
Sm1Ba2Cu3O7.01,87.0,Sm1 Ba2 Cu3 O7.01,"[Element Sm, Element Ba, Element Cu, Element O]","{'Sm': 1.0, 'Ba': 2.0, 'Cu': 3.0, 'O': 7.01}",Cuprates,4
Sm1.1Ba1.9Cu3O7.05,78.5,Sm1.1 Ba1.9 Cu3 O7.05,"[Element Sm, Element Ba, Element Cu, Element O]","{'Sm': 1.1, 'Ba': 1.9, 'Cu': 3.0, 'O': 7.05}",Cuprates,4
Sm1.2Ba1.8Cu3O7.09,38.0,Sm1.2 Ba1.8 Cu3 O7.09,"[Element Sm, Element Ba, Element Cu, Element O]","{'Sm': 1.2, 'Ba': 1.8, 'Cu': 3.0, 'O': 7.09}",Cuprates,4
Eu1Ba2Cu3O7.01,90.0,Eu1 Ba2 Cu3 O7.01,"[Element Eu, Element Ba, Element Cu, Element O]","{'Eu': 1.0, 'Ba': 2.0, 'Cu': 3.0, 'O': 7.01}",Cuprates,4
Eu1.1Ba1.9Cu3O7.07,81.0,Eu1.1 Ba1.9 Cu3 O7.07,"[Element Eu, Element Ba, Element Cu, Element O]","{'Eu': 1.1, 'Ba': 1.9, 'Cu': 3.0, 'O': 7.07}",Cuprates,4
Eu1.2Ba1.8Cu3O7.18,42.0,Eu1.2 Ba1.8 Cu3 O7.18,"[Element Eu, Element Ba, Element Cu, Element O]","{'Eu': 1.2, 'Ba': 1.8, 'Cu': 3.0, 'O': 7.18}",Cuprates,4
Eu1.3Ba1.7Cu3O7.15,39.5,Eu1.3 Ba1.7 Cu3 O7.15,"[Element Eu, Element Ba, Element Cu, Element O]","{'Eu': 1.3, 'Ba': 1.7, 'Cu': 3.0, 'O': 7.15}",Cuprates,4
Eu1.4Ba1.6Cu3O7.16,28.0,Eu1.4 Ba1.6 Cu3 O7.16,"[Element Eu, Element Ba, Element Cu, Element O]","{'Eu': 1.4, 'Ba': 1.6, 'Cu': 3.0, 'O': 7.16}",Cuprates,4
La1.92Ba0.08Cu1O4,32.2,La1.92 Ba0.08 Cu1 O4,"[Element La, Element Ba, Element Cu, Element O]","{'La': 1.92, 'Ba': 0.08, 'Cu': 1.0, 'O': 4.0}",Cuprates,4
La1.825Ba0.175Cu1O4,28.3,La1.825 Ba0.175 Cu1 O4,"[Element La, Element Ba, Element Cu, Element O]","{'La': 1.825, 'Ba': 0.175, 'Cu': 1.0, 'O': 4.0}",Cuprates,4
La1.855Ba0.145Cu1O4,30.0,La1.855 Ba0.145 Cu1 O4,"[Element La, Element Ba, Element Cu, Element O]","{'La': 1.855, 'Ba': 0.145, 'Cu': 1.0, 'O': 4.0}",Cuprates,4
Bi2Sr1.9La0.1Cu1O6.2,12.0,Bi2 Sr1.9 La0.1 Cu1 O6.2,"[Element Bi, Element Sr, Element La, Element Cu, Element O]","{'Bi': 2.0, 'Sr': 1.9, 'La': 0.1, 'Cu': 1.0, 'O': 6.2}",Cuprates,5
Bi2Sr1.8La0.2Cu1O6.3,18.0,Bi2 Sr1.8 La0.2 Cu1 O6.3,"[Element Bi, Element Sr, Element La, Element Cu, Element O]","{'Bi': 2.0, 'Sr': 1.8, 'La': 0.2, 'Cu': 1.0, 'O': 6.3}",Cuprates,5
Bi2Sr1.6La0.4Cu1O6.35,20.0,Bi2 Sr1.6 La0.4 Cu1 O6.35,"[Element Bi, Element Sr, Element La, Element Cu, Element O]","{'Bi': 2.0, 'Sr': 1.6, 'La': 0.4, 'Cu': 1.0, 'O': 6.35}",Cuprates,5
Bi2Sr1.5La0.5Cu1O6.38,21.0,Bi2 Sr1.5 La0.5 Cu1 O6.38,"[Element Bi, Element Sr, Element La, Element Cu, Element O]","{'Bi': 2.0, 'Sr': 1.5, 'La': 0.5, 'Cu': 1.0, 'O': 6.38}",Cuprates,5
Bi2Sr1.4La0.6Cu1O6.42,5.0,Bi2 Sr1.4 La0.6 Cu1 O6.42,"[Element Bi, Element Sr, Element La, Element Cu, Element O]","{'Bi': 2.0, 'Sr': 1.4, 'La': 0.6, 'Cu': 1.0, 'O': 6.42}",Cuprates,5
La1.9Sr0.1Cu0.975Ni0.025O4,3.65,La1.9 Sr0.1 Cu0.975 Ni0.025 O4,"[Element La, Element Sr, Element Cu, Element Ni, Element O]","{'La': 1.9, 'Sr': 0.1, 'Cu': 0.975, 'Ni': 0.025, 'O': 4.0}",Cuprates,5
La1.9Sr0.1Cu0.97Ni0.03O4,3.65,La1.9 Sr0.1 Cu0.97 Ni0.03 O4,"[Element La, Element Sr, Element Cu, Element Ni, Element O]","{'La': 1.9, 'Sr': 0.1, 'Cu': 0.97, 'Ni': 0.03, 'O': 4.0}",Cuprates,5
La1.855Sr0.145Cu0.99Ni0.01O4,33.0,La1.855 Sr0.145 Cu0.99 Ni0.01 O4,"[Element La, Element Sr, Element Cu, Element Ni, Element O]","{'La': 1.855, 'Sr': 0.145, 'Cu': 0.99, 'Ni': 0.01, 'O': 4.0}",Cuprates,5
La1.836Sr0.164Cu1O4,36.9,La1.836 Sr0.164 Cu1 O4,"[Element La, Element Sr, Element Cu, Element O]","{'La': 1.836, 'Sr': 0.164, 'Cu': 1.0, 'O': 4.0}",Cuprates,4
La1.836Sr0.164Cu0.99Ga0.01O4,26.9,La1.836 Sr0.164 Cu0.99 Ga0.01 O4,"[Element La, Element Sr, Element Cu, Element Ga, Element O]","{'La': 1.836, 'Sr': 0.164, 'Cu': 0.99, 'Ga': 0.01, 'O': 4.0}",Cuprates,5
La1.85Sr0.15Cu0.99Ni0.01O4,30.1,La1.85 Sr0.15 Cu0.99 Ni0.01 O4,"[Element La, Element Sr, Element Cu, Element Ni, Element O]","{'La': 1.85, 'Sr': 0.15, 'Cu': 0.99, 'Ni': 0.01, 'O': 4.0}",Cuprates,5
La1.85Sr0.15Cu0.96Ni0.04O4,6.4,La1.85 Sr0.15 Cu0.96 Ni0.04 O4,"[Element La, Element Sr, Element Cu, Element Ni, Element O]","{'La': 1.85, 'Sr': 0.15, 'Cu': 0.96, 'Ni': 0.04, 'O': 4.0}",Cuprates,5
La1.78Sr0.22Cu0.99Ni0.01O4,21.3,La1.78 Sr0.22 Cu0.99 Ni0.01 O4,"[Element La, Element Sr, Element Cu, Element Ni, Element O]","{'La': 1.78, 'Sr': 0.22, 'Cu': 0.99, 'Ni': 0.01, 'O': 4.0}",Cuprates,5
La1.78Sr0.22Cu0.98Ni0.02O4,17.7,La1.78 Sr0.22 Cu0.98 Ni0.02 O4,"[Element La, Element Sr, Element Cu, Element Ni, Element O]","{'La': 1.78, 'Sr': 0.22, 'Cu': 0.98, 'Ni': 0.02, 'O': 4.0}",Cuprates,5
La1.78Sr0.22Cu0.97Ni0.03O4,14.0,La1.78 Sr0.22 Cu0.97 Ni0.03 O4,"[Element La, Element Sr, Element Cu, Element Ni, Element O]","{'La': 1.78, 'Sr': 0.22, 'Cu': 0.97, 'Ni': 0.03, 'O': 4.0}",Cuprates,5
La1.78Sr0.22Cu0.96Ni0.04O4,7.9,La1.78 Sr0.22 Cu0.96 Ni0.04 O4,"[Element La, Element Sr, Element Cu, Element Ni, Element O]","{'La': 1.78, 'Sr': 0.22, 'Cu': 0.96, 'Ni': 0.04, 'O': 4.0}",Cuprates,5
La1.78Sr0.22Cu0.95Ni0.05O4,4.1,La1.78 Sr0.22 Cu0.95 Ni0.05 O4,"[Element La, Element Sr, Element Cu, Element Ni, Element O]","{'La': 1.78, 'Sr': 0.22, 'Cu': 0.95, 'Ni': 0.05, 'O': 4.0}",Cuprates,5
La1.78Sr0.22Cu1O4,24.6,La1.78 Sr0.22 Cu1 O4,"[Element La, Element Sr, Element Cu, Element O]","{'La': 1.78, 'Sr': 0.22, 'Cu': 1.0, 'O': 4.0}",Cuprates,4
La1.95Sr0.05Cu1O4,9.0,La1.95 Sr0.05 Cu1 O4,"[Element La, Element Sr, Element Cu, Element O]","{'La': 1.95, 'Sr': 0.05, 'Cu': 1.0, 'O': 4.0}",Cuprates,4
La1.96Sr0.04Cu1O4,9.5,La1.96 Sr0.04 Cu1 O4,"[Element La, Element Sr, Element Cu, Element O]","{'La': 1.96, 'Sr': 0.04, 'Cu': 1.0, 'O': 4.0}",Cuprates,4
Eu1Ba1.93Cu2.92O7,83.2,Eu1 Ba1.93 Cu2.92 O7,"[Element Eu, Element Ba, Element Cu, Element O]","{'Eu': 1.0, 'Ba': 1.93, 'Cu': 2.92, 'O': 7.0}",Cuprates,4
Er1Ba2.03Cu3.05O7,90.0,Er1 Ba2.03 Cu3.05 O7,"[Element Er, Element Ba, Element Cu, Element O]","{'Er': 1.0, 'Ba': 2.03, 'Cu': 3.05, 'O': 7.0}",Cuprates,4
Tl0.7Pb0.3Ca1Sr2Cu2O7,31.0,Tl0.7 Pb0.3 Ca1 Sr2 Cu2 O7,"[Element Tl, Element Pb, Element Ca, Element Sr, Element Cu, Element O]","{'Tl': 0.7, 'Pb': 0.3, 'Ca': 1.0, 'Sr': 2.0, 'Cu': 2.0, 'O': 7.0}",Cuprates,6
Tl0.75Pb0.25Ca1Sr2Cu2O7,80.0,Tl0.75 Pb0.25 Ca1 Sr2 Cu2 O7,"[Element Tl, Element Pb, Element Ca, Element Sr, Element Cu, Element O]","{'Tl': 0.75, 'Pb': 0.25, 'Ca': 1.0, 'Sr': 2.0, 'Cu': 2.0, 'O': 7.0}",Cuprates,6
Bi2.15Sr1.8Ca1Cu2O8.15,93.0,Bi2.15 Sr1.8 Ca1 Cu2 O8.15,"[Element Bi, Element Sr, Element Ca, Element Cu, Element O]","{'Bi': 2.15, 'Sr': 1.8, 'Ca': 1.0, 'Cu': 2.0, 'O': 8.15}",Cuprates,5
Bi1Sr1Ca1Cu1O1,105.0,Bi1 Sr1 Ca1 Cu1 O1,"[Element Bi, Element Sr, Element Ca, Element Cu, Element O]","{'Bi': 1.0, 'Sr': 1.0, 'Ca': 1.0, 'Cu': 1.0, 'O': 1.0}",Cuprates,5
Bi4Ca3Sr3Cu4O16.32,80.0,Bi4 Ca3 Sr3 Cu4 O16.32,"[Element Bi, Element Ca, Element Sr, Element Cu, Element O]","{'Bi': 4.0, 'Ca': 3.0, 'Sr': 3.0, 'Cu': 4.0, 'O': 16.32}",Cuprates,5
Ba0.625K0.375Bi1O3,27.5,Ba0.625 K0.375 Bi1 O3,"[Element Ba, Element K, Element Bi, Element O]","{'Ba': 0.625, 'K': 0.375, 'Bi': 1.0, 'O': 3.0}",Other,4
Tl2Ba2Ca1Cu2O7,108.0,Tl2 Ba2 Ca1 Cu2 O7,"[Element Tl, Element Ba, Element Ca, Element Cu, Element O]","{'Tl': 2.0, 'Ba': 2.0, 'Ca': 1.0, 'Cu': 2.0, 'O': 7.0}",Cuprates,5
Ba1Pb0.78Bi0.22O3,10.3,Ba1 Pb0.78 Bi0.22 O3,"[Element Ba, Element Pb, Element Bi, Element O]","{'Ba': 1.0, 'Pb': 0.78, 'Bi': 0.22, 'O': 3.0}",Other,4
Ba1Pb0.83Bi0.17O3,7.6,Ba1 Pb0.83 Bi0.17 O3,"[Element Ba, Element Pb, Element Bi, Element O]","{'Ba': 1.0, 'Pb': 0.83, 'Bi': 0.17, 'O': 3.0}",Other,4
Sm1.5Ce0.5Sr2Cu2Nb1O10,23.0,Sm1.5 Ce0.5 Sr2 Cu2 Nb1 O10,"[Element Sm, Element Ce, Element Sr, Element Cu, Element Nb, Element O]","{'Sm': 1.5, 'Ce': 0.5, 'Sr': 2.0, 'Cu': 2.0, 'Nb': 1.0, 'O': 10.0}",Cuprates,6
Eu1.5Ce0.5Sr2Cu2Nb1O10,23.0,Eu1.5 Ce0.5 Sr2 Cu2 Nb1 O10,"[Element Eu, Element Ce, Element Sr, Element Cu, Element Nb, Element O]","{'Eu': 1.5, 'Ce': 0.5, 'Sr': 2.0, 'Cu': 2.0, 'Nb': 1.0, 'O': 10.0}",Cuprates,6
Bi2Sr1Ca2Cu2O8.229,76.4,Bi2 Sr1 Ca2 Cu2 O8.229,"[Element Bi, Element Sr, Element Ca, Element Cu, Element O]","{'Bi': 2.0, 'Sr': 1.0, 'Ca': 2.0, 'Cu': 2.0, 'O': 8.229}",Cuprates,5
Bi2Sr1.1Ca1.9Cu2O8.22,76.5,Bi2 Sr1.1 Ca1.9 Cu2 O8.22,"[Element Bi, Element Sr, Element Ca, Element Cu, Element O]","{'Bi': 2.0, 'Sr': 1.1, 'Ca': 1.9, 'Cu': 2.0, 'O': 8.22}",Cuprates,5
Bi2Sr1.2Ca1.8Cu2O8.199,76.5,Bi2 Sr1.2 Ca1.8 Cu2 O8.199,"[Element Bi, Element Sr, Element Ca, Element Cu, Element O]","{'Bi': 2.0, 'Sr': 1.2, 'Ca': 1.8, 'Cu': 2.0, 'O': 8.199}",Cuprates,5
Bi2Sr1.3Ca1.7Cu2O8.19,76.5,Bi2 Sr1.3 Ca1.7 Cu2 O8.19,"[Element Bi, Element Sr, Element Ca, Element Cu, Element O]","{'Bi': 2.0, 'Sr': 1.3, 'Ca': 1.7, 'Cu': 2.0, 'O': 8.19}",Cuprates,5
Bi2Sr1.4Ca1.6Cu2O8.2,81.1,Bi2 Sr1.4 Ca1.6 Cu2 O8.2,"[Element Bi, Element Sr, Element Ca, Element Cu, Element O]","{'Bi': 2.0, 'Sr': 1.4, 'Ca': 1.6, 'Cu': 2.0, 'O': 8.2}",Cuprates,5
Bi2Sr1.6Ca1.4Cu2O8.16,77.6,Bi2 Sr1.6 Ca1.4 Cu2 O8.16,"[Element Bi, Element Sr, Element Ca, Element Cu, Element O]","{'Bi': 2.0, 'Sr': 1.6, 'Ca': 1.4, 'Cu': 2.0, 'O': 8.16}",Cuprates,5
Bi2Sr1.7Ca1.3Cu2O8.211,78.7,Bi2 Sr1.7 Ca1.3 Cu2 O8.211,"[Element Bi, Element Sr, Element Ca, Element Cu, Element O]","{'Bi': 2.0, 'Sr': 1.7, 'Ca': 1.3, 'Cu': 2.0, 'O': 8.211}",Cuprates,5
Bi2Sr1.8Ca1.2Cu2O8.211,73.7,Bi2 Sr1.8 Ca1.2 Cu2 O8.211,"[Element Bi, Element Sr, Element Ca, Element Cu, Element O]","{'Bi': 2.0, 'Sr': 1.8, 'Ca': 1.2, 'Cu': 2.0, 'O': 8.211}",Cuprates,5
Bi2Sr1.9Ca1.1Cu2O8.181,71.8,Bi2 Sr1.9 Ca1.1 Cu2 O8.181,"[Element Bi, Element Sr, Element Ca, Element Cu, Element O]","{'Bi': 2.0, 'Sr': 1.9, 'Ca': 1.1, 'Cu': 2.0, 'O': 8.181}",Cuprates,5
Bi2Sr2Ca1Cu2O8.212,73.0,Bi2 Sr2 Ca1 Cu2 O8.212,"[Element Bi, Element Sr, Element Ca, Element Cu, Element O]","{'Bi': 2.0, 'Sr': 2.0, 'Ca': 1.0, 'Cu': 2.0, 'O': 8.212}",Cuprates,5
Bi2Sr2Ca1Cu2I1O8,58.0,Bi2 Sr2 Ca1 Cu2 I1 O8,"[Element Bi, Element Sr, Element Ca, Element Cu, Element I, Element O]","{'Bi': 2.0, 'Sr': 2.0, 'Ca': 1.0, 'Cu': 2.0, 'I': 1.0, 'O': 8.0}",Cuprates,6
La1.25Ca0.3Ba1.45Cu3O7.11,67.1,La1.25 Ca0.3 Ba1.45 Cu3 O7.11,"[Element La, Element Ca, Element Ba, Element Cu, Element O]","{'La': 1.25, 'Ca': 0.3, 'Ba': 1.45, 'Cu': 3.0, 'O': 7.11}",Cuprates,5
La1.25Ca0.35Ba1.4Cu3O7.108,74.3,La1.25 Ca0.35 Ba1.4 Cu3 O7.108,"[Element La, Element Ca, Element Ba, Element Cu, Element O]","{'La': 1.25, 'Ca': 0.35, 'Ba': 1.4, 'Cu': 3.0, 'O': 7.108}",Cuprates,5
La1.25Ca0.4Ba1.35Cu3O7.141,77.8,La1.25 Ca0.4 Ba1.35 Cu3 O7.141,"[Element La, Element Ca, Element Ba, Element Cu, Element O]","{'La': 1.25, 'Ca': 0.4, 'Ba': 1.35, 'Cu': 3.0, 'O': 7.141}",Cuprates,5
La1.25Ca0.45Ba1.3Cu3O7.135,79.2,La1.25 Ca0.45 Ba1.3 Cu3 O7.135,"[Element La, Element Ca, Element Ba, Element Cu, Element O]","{'La': 1.25, 'Ca': 0.45, 'Ba': 1.3, 'Cu': 3.0, 'O': 7.135}",Cuprates,5
La1.25Ca0.5Ba1.25Cu3O7.137,79.2,La1.25 Ca0.5 Ba1.25 Cu3 O7.137,"[Element La, Element Ca, Element Ba, Element Cu, Element O]","{'La': 1.25, 'Ca': 0.5, 'Ba': 1.25, 'Cu': 3.0, 'O': 7.137}",Cuprates,5
La1.25Ba1.75Cu3O7.07,40.0,La1.25 Ba1.75 Cu3 O7.07,"[Element La, Element Ba, Element Cu, Element O]","{'La': 1.25, 'Ba': 1.75, 'Cu': 3.0, 'O': 7.07}",Cuprates,4
La1.25Ca0.05Ba1.7Cu3O7.03,38.6,La1.25 Ca0.05 Ba1.7 Cu3 O7.03,"[Element La, Element Ca, Element Ba, Element Cu, Element O]","{'La': 1.25, 'Ca': 0.05, 'Ba': 1.7, 'Cu': 3.0, 'O': 7.03}",Cuprates,5
La1.25Ca0.1Ba1.65Cu3O7.06,38.8,La1.25 Ca0.1 Ba1.65 Cu3 O7.06,"[Element La, Element Ca, Element Ba, Element Cu, Element O]","{'La': 1.25, 'Ca': 0.1, 'Ba': 1.65, 'Cu': 3.0, 'O': 7.06}",Cuprates,5
La1.25Ca0.15Ba1.6Cu3O7.052,45.6,La1.25 Ca0.15 Ba1.6 Cu3 O7.052,"[Element La, Element Ca, Element Ba, Element Cu, Element O]","{'La': 1.25, 'Ca': 0.15, 'Ba': 1.6, 'Cu': 3.0, 'O': 7.052}",Cuprates,5
La1.25Ca0.2Ba1.55Cu3O7.082,50.2,La1.25 Ca0.2 Ba1.55 Cu3 O7.082,"[Element La, Element Ca, Element Ba, Element Cu, Element O]","{'La': 1.25, 'Ca': 0.2, 'Ba': 1.55, 'Cu': 3.0, 'O': 7.082}",Cuprates,5
La1.25Ca0.25Ba1.5Cu3O7.087,62.9,La1.25 Ca0.25 Ba1.5 Cu3 O7.087,"[Element La, Element Ca, Element Ba, Element Cu, Element O]","{'La': 1.25, 'Ca': 0.25, 'Ba': 1.5, 'Cu': 3.0, 'O': 7.087}",Cuprates,5
La2Cu1O4.09,32.0,La2 Cu1 O4.09,"[Element La, Element Cu, Element O]","{'La': 2.0, 'Cu': 1.0, 'O': 4.09}",Cuprates,3
Lu0.9Pr0.1Ba2Cu3O2,85.0,Lu0.9 Pr0.1 Ba2 Cu3 O2,"[Element Lu, Element Pr, Element Ba, Element Cu, Element O]","{'Lu': 0.9, 'Pr': 0.1, 'Ba': 2.0, 'Cu': 3.0, 'O': 2.0}",Cuprates,5
Ba0.65K0.35Bi1O2.99,18.7,Ba0.65 K0.35 Bi1 O2.99,"[Element Ba, Element K, Element Bi, Element O]","{'Ba': 0.65, 'K': 0.35, 'Bi': 1.0, 'O': 2.99}",Other,4
Ba0.59K0.41Bi1O2.96,20.4,Ba0.59 K0.41 Bi1 O2.96,"[Element Ba, Element K, Element Bi, Element O]","{'Ba': 0.59, 'K': 0.41, 'Bi': 1.0, 'O': 2.96}",Other,4
Ba0.52K0.48Bi1O2.93,20.6,Ba0.52 K0.48 Bi1 O2.93,"[Element Ba, Element K, Element Bi, Element O]","{'Ba': 0.52, 'K': 0.48, 'Bi': 1.0, 'O': 2.93}",Other,4
Ba0.48K0.52Bi1O2.9,21.1,Ba0.48 K0.52 Bi1 O2.9,"[Element Ba, Element K, Element Bi, Element O]","{'Ba': 0.48, 'K': 0.52, 'Bi': 1.0, 'O': 2.9}",Other,4
Ba0.45K0.55Bi1O2.83,18.95,Ba0.45 K0.55 Bi1 O2.83,"[Element Ba, Element K, Element Bi, Element O]","{'Ba': 0.45, 'K': 0.55, 'Bi': 1.0, 'O': 2.83}",Other,4
Bi1.9Pb0.1Sr2Ca1Cu2O8.2,73.5,Bi1.9 Pb0.1 Sr2 Ca1 Cu2 O8.2,"[Element Bi, Element Pb, Element Sr, Element Ca, Element Cu, Element O]","{'Bi': 1.9, 'Pb': 0.1, 'Sr': 2.0, 'Ca': 1.0, 'Cu': 2.0, 'O': 8.2}",Cuprates,6
Ho1Ba1Sr1Cu3O6.94,79.0,Ho1 Ba1 Sr1 Cu3 O6.94,"[Element Ho, Element Ba, Element Sr, Element Cu, Element O]","{'Ho': 1.0, 'Ba': 1.0, 'Sr': 1.0, 'Cu': 3.0, 'O': 6.94}",Cuprates,5
Er1Ba1Sr1Cu3O6.94,78.0,Er1 Ba1 Sr1 Cu3 O6.94,"[Element Er, Element Ba, Element Sr, Element Cu, Element O]","{'Er': 1.0, 'Ba': 1.0, 'Sr': 1.0, 'Cu': 3.0, 'O': 6.94}",Cuprates,5
Tm1Ba1Sr1Cu3O6.94,70.0,Tm1 Ba1 Sr1 Cu3 O6.94,"[Element Tm, Element Ba, Element Sr, Element Cu, Element O]","{'Tm': 1.0, 'Ba': 1.0, 'Sr': 1.0, 'Cu': 3.0, 'O': 6.94}",Cuprates,5
Lu1Ba1Sr1Cu3O6.94,54.0,Lu1 Ba1 Sr1 Cu3 O6.94,"[Element Lu, Element Ba, Element Sr, Element Cu, Element O]","{'Lu': 1.0, 'Ba': 1.0, 'Sr': 1.0, 'Cu': 3.0, 'O': 6.94}",Cuprates,5
La1Ba1Sr1Cu3O6.94,57.0,La1 Ba1 Sr1 Cu3 O6.94,"[Element La, Element Ba, Element Sr, Element Cu, Element O]","{'La': 1.0, 'Ba': 1.0, 'Sr': 1.0, 'Cu': 3.0, 'O': 6.94}",Cuprates,5
Sm1Ba1Sr1Cu3O6.94,80.0,Sm1 Ba1 Sr1 Cu3 O6.94,"[Element Sm, Element Ba, Element Sr, Element Cu, Element O]","{'Sm': 1.0, 'Ba': 1.0, 'Sr': 1.0, 'Cu': 3.0, 'O': 6.94}",Cuprates,5
Eu1Ba1Sr1Cu3O6.94,80.0,Eu1 Ba1 Sr1 Cu3 O6.94,"[Element Eu, Element Ba, Element Sr, Element Cu, Element O]","{'Eu': 1.0, 'Ba': 1.0, 'Sr': 1.0, 'Cu': 3.0, 'O': 6.94}",Cuprates,5
Tl1.4Ba2Ca3Cu4O11.4,118.0,Tl1.4 Ba2 Ca3 Cu4 O11.4,"[Element Tl, Element Ba, Element Ca, Element Cu, Element O]","{'Tl': 1.4, 'Ba': 2.0, 'Ca': 3.0, 'Cu': 4.0, 'O': 11.4}",Cuprates,5
Eu2.17Ce0.5Sr1.33Cu2.5Fe0.5O9.23,25.7,Eu2.17 Ce0.5 Sr1.33 Cu2.5 Fe0.5 O9.23,"[Element Eu, Element Ce, Element Sr, Element Cu, Element Fe, Element O]","{'Eu': 2.17, 'Ce': 0.5, 'Sr': 1.33, 'Cu': 2.5, 'Fe': 0.5, 'O': 9.23}",Cuprates,6
Eu2.17Ce0.5Sr1.33Cu2.5Co0.5O9.08,34.9,Eu2.17 Ce0.5 Sr1.33 Cu2.5 Co0.5 O9.08,"[Element Eu, Element Ce, Element Sr, Element Cu, Element Co, Element O]","{'Eu': 2.17, 'Ce': 0.5, 'Sr': 1.33, 'Cu': 2.5, 'Co': 0.5, 'O': 9.08}",Cuprates,6
Eu2.17Ce0.5Sr1.33Cu2.5Al0.5O9.02,16.4,Eu2.17 Ce0.5 Sr1.33 Cu2.5 Al0.5 O9.02,"[Element Eu, Element Ce, Element Sr, Element Cu, Element Al, Element O]","{'Eu': 2.17, 'Ce': 0.5, 'Sr': 1.33, 'Cu': 2.5, 'Al': 0.5, 'O': 9.02}",Cuprates,6
Sm1.85Ce0.15Cu1O4,20.0,Sm1.85 Ce0.15 Cu1 O4,"[Element Sm, Element Ce, Element Cu, Element O]","{'Sm': 1.85, 'Ce': 0.15, 'Cu': 1.0, 'O': 4.0}",Cuprates,4
Bi2Sr2Ca2Cu3O10,106.5,Bi2 Sr2 Ca2 Cu3 O10,"[Element Bi, Element Sr, Element Ca, Element Cu, Element O]","{'Bi': 2.0, 'Sr': 2.0, 'Ca': 2.0, 'Cu': 3.0, 'O': 10.0}",Cuprates,5
Ca1Ba1La1Cu3O6.85,76.0,Ca1 Ba1 La1 Cu3 O6.85,"[Element Ca, Element Ba, Element La, Element Cu, Element O]","{'Ca': 1.0, 'Ba': 1.0, 'La': 1.0, 'Cu': 3.0, 'O': 6.85}",Cuprates,5
Ca0.95Ce0.05Ba1La1Cu3O6.91,64.8,Ca0.95 Ce0.05 Ba1 La1 Cu3 O6.91,"[Element Ca, Element Ce, Element Ba, Element La, Element Cu, Element O]","{'Ca': 0.95, 'Ce': 0.05, 'Ba': 1.0, 'La': 1.0, 'Cu': 3.0, 'O': 6.91}",Cuprates,6
Ca0.9Ce0.1Ba1La1Cu3O7.02,60.5,Ca0.9 Ce0.1 Ba1 La1 Cu3 O7.02,"[Element Ca, Element Ce, Element Ba, Element La, Element Cu, Element O]","{'Ca': 0.9, 'Ce': 0.1, 'Ba': 1.0, 'La': 1.0, 'Cu': 3.0, 'O': 7.02}",Cuprates,6
Ca0.85Ce0.15Ba1La1Cu3O7.07,52.4,Ca0.85 Ce0.15 Ba1 La1 Cu3 O7.07,"[Element Ca, Element Ce, Element Ba, Element La, Element Cu, Element O]","{'Ca': 0.85, 'Ce': 0.15, 'Ba': 1.0, 'La': 1.0, 'Cu': 3.0, 'O': 7.07}",Cuprates,6
Hg1Ba2Ca2Cu3O8,133.0,Hg1 Ba2 Ca2 Cu3 O8,"[Element Hg, Element Ba, Element Ca, Element Cu, Element O]","{'Hg': 1.0, 'Ba': 2.0, 'Ca': 2.0, 'Cu': 3.0, 'O': 8.0}",Cuprates,5
Pb0.7Hg0.3Sr4Cu2C1O10,68.0,Pb0.7 Hg0.3 Sr4 Cu2 C1 O10,"[Element Pb, Element Hg, Element Sr, Element Cu, Element C, Element O]","{'Pb': 0.7, 'Hg': 0.3, 'Sr': 4.0, 'Cu': 2.0, 'C': 1.0, 'O': 10.0}",Cuprates,6
Eu1.6Sr1.8Ce0.6Cu3O8.6,30.0,Eu1.6 Sr1.8 Ce0.6 Cu3 O8.6,"[Element Eu, Element Sr, Element Ce, Element Cu, Element O]","{'Eu': 1.6, 'Sr': 1.8, 'Ce': 0.6, 'Cu': 3.0, 'O': 8.6}",Cuprates,5
Ba2Ca3Cu5O,106.0,Ba2 Ca3 Cu5 O1,"[Element Ba, Element Ca, Element Cu, Element O]","{'Ba': 2.0, 'Ca': 3.0, 'Cu': 5.0, 'O': 1.0}",Cuprates,4
Ba0.65K0.35Bi1O2.984,27.9,Ba0.65 K0.35 Bi1 O2.984,"[Element Ba, Element K, Element Bi, Element O]","{'Ba': 0.65, 'K': 0.35, 'Bi': 1.0, 'O': 2.984}",Other,4
Ba0.525K0.475Bi1O2.917,25.9,Ba0.525 K0.475 Bi1 O2.917,"[Element Ba, Element K, Element Bi, Element O]","{'Ba': 0.525, 'K': 0.475, 'Bi': 1.0, 'O': 2.917}",Other,4
Ba0.6K0.4Bi1O2.926,27.6,Ba0.6 K0.4 Bi1 O2.926,"[Element Ba, Element K, Element Bi, Element O]","{'Ba': 0.6, 'K': 0.4, 'Bi': 1.0, 'O': 2.926}",Other,4
Bi2Sr2Ca1Cu2O8.24,71.1,Bi2 Sr2 Ca1 Cu2 O8.24,"[Element Bi, Element Sr, Element Ca, Element Cu, Element O]","{'Bi': 2.0, 'Sr': 2.0, 'Ca': 1.0, 'Cu': 2.0, 'O': 8.24}",Cuprates,5
La1.85Sr0.15Cu0.965Ni0.035O4,2.1,La1.85 Sr0.15 Cu0.965 Ni0.035 O4,"[Element La, Element Sr, Element Cu, Element Ni, Element O]","{'La': 1.85, 'Sr': 0.15, 'Cu': 0.965, 'Ni': 0.035, 'O': 4.0}",Cuprates,5
La1.83Sr0.17Cu0.98Ni0.02O4,22.1,La1.83 Sr0.17 Cu0.98 Ni0.02 O4,"[Element La, Element Sr, Element Cu, Element Ni, Element O]","{'La': 1.83, 'Sr': 0.17, 'Cu': 0.98, 'Ni': 0.02, 'O': 4.0}",Cuprates,5