chemical_formula,Tc,composition,elements,stoichiometry,Category,num_elements
La1.76Sr0.24Cu0.97Ru0.03O4,16.1,La1.76 Sr0.24 Cu0.97 Ru0.03 O4,"[Element La, Element Sr, Element Cu, Element Ru, Element O]","{'La': 1.76, 'Sr': 0.24, 'Cu': 0.97, 'Ru': 0.03, 'O': 4.0}",Cuprates,5
La1.75Sr0.25Cu0.97Ru0.03O4,15.3,La1.75 Sr0.25 Cu0.97 Ru0.03 O4,"[Element La, Element Sr, Element Cu, Element Ru, Element O]","{'La': 1.75, 'Sr': 0.25, 'Cu': 0.97, 'Ru': 0.03, 'O': 4.0}",Cuprates,5
La1.73Sr0.27Cu0.97Ru0.03O4,14.1,La1.73 Sr0.27 Cu0.97 Ru0.03 O4,"[Element La, Element Sr, Element Cu, Element Ru, Element O]","{'La': 1.73, 'Sr': 0.27, 'Cu': 0.97, 'Ru': 0.03, 'O': 4.0}",Cuprates,5
La1.9Pr0.1Ca0.2Ba2Cu4.2O9.8786,25.5,La1.9 Pr0.1 Ca0.2 Ba2 Cu4.2 O9.8786,"[Element La, Element Pr, Element Ca, Element Ba, Element Cu, Element O]","{'La': 1.9, 'Pr': 0.1, 'Ca': 0.2, 'Ba': 2.0, 'Cu': 4.2, 'O': 9.8786}",Cuprates,6
La1.8Pr0.2Ca0.4Ba2Cu4.4O10.7348,35.4,La1.8 Pr0.2 Ca0.4 Ba2 Cu4.4 O10.7348,"[Element La, Element Pr, Element Ca, Element Ba, Element Cu, Element O]","{'La': 1.8, 'Pr': 0.2, 'Ca': 0.4, 'Ba': 2.0, 'Cu': 4.4, 'O': 10.7348}",Cuprates,6
La1.7Pr0.3Ca0.6Ba2Cu4.6O10.8862,47.6,La1.7 Pr0.3 Ca0.6 Ba2 Cu4.6 O10.8862,"[Element La, Element Pr, Element Ca, Element Ba, Element Cu, Element O]","{'La': 1.7, 'Pr': 0.3, 'Ca': 0.6, 'Ba': 2.0, 'Cu': 4.6, 'O': 10.8862}",Cuprates,6
La1.6Pr0.4Ca0.8Ba2Cu4.8O11.1064,54.0,La1.6 Pr0.4 Ca0.8 Ba2 Cu4.8 O11.1064,"[Element La, Element Pr, Element Ca, Element Ba, Element Cu, Element O]","{'La': 1.6, 'Pr': 0.4, 'Ca': 0.8, 'Ba': 2.0, 'Cu': 4.8, 'O': 11.1064}",Cuprates,6
La1.5Pr0.5Ca1Ba2Cu5O11.782,57.7,La1.5 Pr0.5 Ca1 Ba2 Cu5 O11.782,"[Element La, Element Pr, Element Ca, Element Ba, Element Cu, Element O]","{'La': 1.5, 'Pr': 0.5, 'Ca': 1.0, 'Ba': 2.0, 'Cu': 5.0, 'O': 11.782}",Cuprates,6
Sr1Ti1O3,0.58,Sr1 Ti1 O3,"[Element Sr, Element Ti, Element O]","{'Sr': 1.0, 'Ti': 1.0, 'O': 3.0}",Other,3
Sr2Ru0.9995Ti0.0005O4,1.13,Sr2 Ru0.9995 Ti0.0005 O4,"[Element Sr, Element Ru, Element Ti, Element O]","{'Sr': 2.0, 'Ru': 0.9995, 'Ti': 0.0005, 'O': 4.0}",Other,4
Sr2Ru0.999Ti0.001O4,0.6,Sr2 Ru0.999 Ti0.001 O4,"[Element Sr, Element Ru, Element Ti, Element O]","{'Sr': 2.0, 'Ru': 0.999, 'Ti': 0.001, 'O': 4.0}",Other,4
Sr2Ru0.99875Ti0.00125O4,0.46,Sr2 Ru0.99875 Ti0.00125 O4,"[Element Sr, Element Ru, Element Ti, Element O]","{'Sr': 2.0, 'Ru': 0.99875, 'Ti': 0.00125, 'O': 4.0}",Other,4
Sr0.9Pr0.1Cu1O2,41.5,Sr0.9 Pr0.1 Cu1 O2,"[Element Sr, Element Pr, Element Cu, Element O]","{'Sr': 0.9, 'Pr': 0.1, 'Cu': 1.0, 'O': 2.0}",Cuprates,4
Na0.45Co1H2.6O3.3,2.0,Na0.45 Co1 H2.6 O3.3,"[Element Na, Element Co, Element H, Element O]","{'Na': 0.45, 'Co': 1.0, 'H': 2.6, 'O': 3.3}",Hydrides,4
Na0.4Co1H2.6O3.3,2.0,Na0.4 Co1 H2.6 O3.3,"[Element Na, Element Co, Element H, Element O]","{'Na': 0.4, 'Co': 1.0, 'H': 2.6, 'O': 3.3}",Hydrides,4
Na0.32Co1H2.6O3.3,2.1,Na0.32 Co1 H2.6 O3.3,"[Element Na, Element Co, Element H, Element O]","{'Na': 0.32, 'Co': 1.0, 'H': 2.6, 'O': 3.3}",Hydrides,4
Na0.33Co1H2.6O3.3,2.2,Na0.33 Co1 H2.6 O3.3,"[Element Na, Element Co, Element H, Element O]","{'Na': 0.33, 'Co': 1.0, 'H': 2.6, 'O': 3.3}",Hydrides,4
Na0.29Co1H2.6O3.3,4.0,Na0.29 Co1 H2.6 O3.3,"[Element Na, Element Co, Element H, Element O]","{'Na': 0.29, 'Co': 1.0, 'H': 2.6, 'O': 3.3}",Hydrides,4
Na0.26Co1H2.6O3.3,2.4,Na0.26 Co1 H2.6 O3.3,"[Element Na, Element Co, Element H, Element O]","{'Na': 0.26, 'Co': 1.0, 'H': 2.6, 'O': 3.3}",Hydrides,4
La1.87Ce0.13Cu1O4,23.5,La1.87 Ce0.13 Cu1 O4,"[Element La, Element Ce, Element Cu, Element O]","{'La': 1.87, 'Ce': 0.13, 'Cu': 1.0, 'O': 4.0}",Cuprates,4
La1.909Ce0.091Cu1O4,30.3,La1.909 Ce0.091 Cu1 O4,"[Element La, Element Ce, Element Cu, Element O]","{'La': 1.909, 'Ce': 0.091, 'Cu': 1.0, 'O': 4.0}",Cuprates,4
La1.89Ce0.11Cu1O4,29.75,La1.89 Ce0.11 Cu1 O4,"[Element La, Element Ce, Element Cu, Element O]","{'La': 1.89, 'Ce': 0.11, 'Cu': 1.0, 'O': 4.0}",Cuprates,4
La1.92Ce0.08Cu1O4,15.0,La1.92 Ce0.08 Cu1 O4,"[Element La, Element Ce, Element Cu, Element O]","{'La': 1.92, 'Ce': 0.08, 'Cu': 1.0, 'O': 4.0}",Cuprates,4
La1.91Ce0.09Cu1O4,18.2,La1.91 Ce0.09 Cu1 O4,"[Element La, Element Ce, Element Cu, Element O]","{'La': 1.91, 'Ce': 0.09, 'Cu': 1.0, 'O': 4.0}",Cuprates,4
La1.85Ce0.15Cu1O4,8.5,La1.85 Ce0.15 Cu1 O4,"[Element La, Element Ce, Element Cu, Element O]","{'La': 1.85, 'Ce': 0.15, 'Cu': 1.0, 'O': 4.0}",Cuprates,4
La1.84Ce0.16Cu1O4,3.0,La1.84 Ce0.16 Cu1 O4,"[Element La, Element Ce, Element Cu, Element O]","{'La': 1.84, 'Ce': 0.16, 'Cu': 1.0, 'O': 4.0}",Cuprates,4
La2Cu1O4.086,45.2,La2 Cu1 O4.086,"[Element La, Element Cu, Element O]","{'La': 2.0, 'Cu': 1.0, 'O': 4.086}",Cuprates,3
La1.64Eu0.2Sr0.16Cu1O4,10.0,La1.64 Eu0.2 Sr0.16 Cu1 O4,"[Element La, Element Eu, Element Sr, Element Cu, Element O]","{'La': 1.64, 'Eu': 0.2, 'Sr': 0.16, 'Cu': 1.0, 'O': 4.0}",Cuprates,5
Na0.75Co0.9995Ir0.0005H2.6O3.3,4.59,Na0.75 Co0.9995 Ir0.0005 H2.6 O3.3,"[Element Na, Element Co, Element Ir, Element H, Element O]","{'Na': 0.75, 'Co': 0.9995, 'Ir': 0.0005, 'H': 2.6, 'O': 3.3}",Hydrides,5
Na0.75Co0.995Ir0.005H2.6O3.3,3.94,Na0.75 Co0.995 Ir0.005 H2.6 O3.3,"[Element Na, Element Co, Element Ir, Element H, Element O]","{'Na': 0.75, 'Co': 0.995, 'Ir': 0.005, 'H': 2.6, 'O': 3.3}",Hydrides,5
Na0.75Co0.99Ir0.01H2.6O3.3,3.54,Na0.75 Co0.99 Ir0.01 H2.6 O3.3,"[Element Na, Element Co, Element Ir, Element H, Element O]","{'Na': 0.75, 'Co': 0.99, 'Ir': 0.01, 'H': 2.6, 'O': 3.3}",Hydrides,5
Na0.75Co0.9995Ga0.0005H2.6O3.3,4.38,Na0.75 Co0.9995 Ga0.0005 H2.6 O3.3,"[Element Na, Element Co, Element Ga, Element H, Element O]","{'Na': 0.75, 'Co': 0.9995, 'Ga': 0.0005, 'H': 2.6, 'O': 3.3}",Hydrides,5
Na0.75Co0.999Ga0.001H2.6O3.3,4.19,Na0.75 Co0.999 Ga0.001 H2.6 O3.3,"[Element Na, Element Co, Element Ga, Element H, Element O]","{'Na': 0.75, 'Co': 0.999, 'Ga': 0.001, 'H': 2.6, 'O': 3.3}",Hydrides,5
Na0.75Co0.9975Ga0.0025H2.6O3.3,3.98,Na0.75 Co0.9975 Ga0.0025 H2.6 O3.3,"[Element Na, Element Co, Element Ga, Element H, Element O]","{'Na': 0.75, 'Co': 0.9975, 'Ga': 0.0025, 'H': 2.6, 'O': 3.3}",Hydrides,5
Na0.75Co0.995Ga0.005H2.6O3.3,2.99,Na0.75 Co0.995 Ga0.005 H2.6 O3.3,"[Element Na, Element Co, Element Ga, Element H, Element O]","{'Na': 0.75, 'Co': 0.995, 'Ga': 0.005, 'H': 2.6, 'O': 3.3}",Hydrides,5
Cs1Os2O6,3.3,Cs1 Os2 O6,"[Element Cs, Element Os, Element O]","{'Cs': 1.0, 'Os': 2.0, 'O': 6.0}",Other,3
Na0.22Co1H1.8O2.85,4.5,Na0.22 Co1 H1.8 O2.85,"[Element Na, Element Co, Element H, Element O]","{'Na': 0.22, 'Co': 1.0, 'H': 1.8, 'O': 2.85}",Hydrides,4
Tb1Sr2Cu2.7Mo0.3O7.15,37.0,Tb1 Sr2 Cu2.7 Mo0.3 O7.15,"[Element Tb, Element Sr, Element Cu, Element Mo, Element O]","{'Tb': 1.0, 'Sr': 2.0, 'Cu': 2.7, 'Mo': 0.3, 'O': 7.15}",Cuprates,5
Na0.23W1O3,2.16,Na0.23 W1 O3,"[Element Na, Element W, Element O]","{'Na': 0.23, 'W': 1.0, 'O': 3.0}",Other,3
Rb0.27W1O3,1.9,Rb0.27 W1 O3,"[Element Rb, Element W, Element O]","{'Rb': 0.27, 'W': 1.0, 'O': 3.0}",Other,3
Rb0.33W1O3,1.76,Rb0.33 W1 O3,"[Element Rb, Element W, Element O]","{'Rb': 0.33, 'W': 1.0, 'O': 3.0}",Other,3
Na0.2W1O3,3.05,Na0.2 W1 O3,"[Element Na, Element W, Element O]","{'Na': 0.2, 'W': 1.0, 'O': 3.0}",Other,3
Ba1Pb0.9Bi0.1O3,2.91,Ba1 Pb0.9 Bi0.1 O3,"[Element Ba, Element Pb, Element Bi, Element O]","{'Ba': 1.0, 'Pb': 0.9, 'Bi': 0.1, 'O': 3.0}",Other,4
Ba1Pb0.85Bi0.15O3,8.7,Ba1 Pb0.85 Bi0.15 O3,"[Element Ba, Element Pb, Element Bi, Element O]","{'Ba': 1.0, 'Pb': 0.85, 'Bi': 0.15, 'O': 3.0}",Other,4
Ba1Pb0.7Bi0.3O3,11.23,Ba1 Pb0.7 Bi0.3 O3,"[Element Ba, Element Pb, Element Bi, Element O]","{'Ba': 1.0, 'Pb': 0.7, 'Bi': 0.3, 'O': 3.0}",Other,4
Ba1Pb0.65Bi0.35O3,3.93,Ba1 Pb0.65 Bi0.35 O3,"[Element Ba, Element Pb, Element Bi, Element O]","{'Ba': 1.0, 'Pb': 0.65, 'Bi': 0.35, 'O': 3.0}",Other,4
Li1Ti2O4,11.4,Li1 Ti2 O4,"[Element Li, Element Ti, Element O]","{'Li': 1.0, 'Ti': 2.0, 'O': 4.0}",Other,3
Na0.28Co1H2.6O3.3,4.21,Na0.28 Co1 H2.6 O3.3,"[Element Na, Element Co, Element H, Element O]","{'Na': 0.28, 'Co': 1.0, 'H': 2.6, 'O': 3.3}",Hydrides,4
Na0.24Co1H2.6O3.3,3.51,Na0.24 Co1 H2.6 O3.3,"[Element Na, Element Co, Element H, Element O]","{'Na': 0.24, 'Co': 1.0, 'H': 2.6, 'O': 3.3}",Hydrides,4
Li1.05Ti1.95O4,12.0,Li1.05 Ti1.95 O4,"[Element Li, Element Ti, Element O]","{'Li': 1.05, 'Ti': 1.95, 'O': 4.0}",Other,3
Li1.1Ti1.9O4,9.6,Li1.1 Ti1.9 O4,"[Element Li, Element Ti, Element O]","{'Li': 1.1, 'Ti': 1.9, 'O': 4.0}",Other,3
Ca1La1Ba1Cu2.8P0.2O7,90.0,Ca1 La1 Ba1 Cu2.8 P0.2 O7,"[Element Ca, Element La, Element Ba, Element Cu, Element P, Element O]","{'Ca': 1.0, 'La': 1.0, 'Ba': 1.0, 'Cu': 2.8, 'P': 0.2, 'O': 7.0}",Cuprates,6
Li1.04Ti1.96O4,12.1,Li1.04 Ti1.96 O4,"[Element Li, Element Ti, Element O]","{'Li': 1.04, 'Ti': 1.96, 'O': 4.0}",Other,3
Li1.08Ti1.92O4,11.8,Li1.08 Ti1.92 O4,"[Element Li, Element Ti, Element O]","{'Li': 1.08, 'Ti': 1.92, 'O': 4.0}",Other,3
Li1.12Ti1.88O4,10.4,Li1.12 Ti1.88 O4,"[Element Li, Element Ti, Element O]","{'Li': 1.12, 'Ti': 1.88, 'O': 4.0}",Other,3
Li1.16Ti1.84O4,8.3,Li1.16 Ti1.84 O4,"[Element Li, Element Ti, Element O]","{'Li': 1.16, 'Ti': 1.84, 'O': 4.0}",Other,3
Li0.98Mg0.02Ti2O4,11.9,Li0.98 Mg0.02 Ti2 O4,"[Element Li, Element Mg, Element Ti, Element O]","{'Li': 0.98, 'Mg': 0.02, 'Ti': 2.0, 'O': 4.0}",Other,4
La2Cu0.985V0.015O4.021,40.0,La2 Cu0.985 V0.015 O4.021,"[Element La, Element Cu, Element V, Element O]","{'La': 2.0, 'Cu': 0.985, 'V': 0.015, 'O': 4.021}",Cuprates,4
La2Cu0.975V0.025O4.032,40.0,La2 Cu0.975 V0.025 O4.032,"[Element La, Element Cu, Element V, Element O]","{'La': 2.0, 'Cu': 0.975, 'V': 0.025, 'O': 4.032}",Cuprates,4
La2Cu0.965V0.035O4.045,40.0,La2 Cu0.965 V0.035 O4.045,"[Element La, Element Cu, Element V, Element O]","{'La': 2.0, 'Cu': 0.965, 'V': 0.035, 'O': 4.045}",Cuprates,4
La2Cu0.955V0.045O4.056,40.0,La2 Cu0.955 V0.045 O4.056,"[Element La, Element Cu, Element V, Element O]","{'La': 2.0, 'Cu': 0.955, 'V': 0.045, 'O': 4.056}",Cuprates,4
Ba2Ca2Cu3F2O6,90.0,Ba2 Ca2 Cu3 F2 O6,"[Element Ba, Element Ca, Element Cu, Element F, Element O]","{'Ba': 2.0, 'Ca': 2.0, 'Cu': 3.0, 'F': 2.0, 'O': 6.0}",Cuprates,5
Ba2Ca3Cu4F2O8,70.0,Ba2 Ca3 Cu4 F2 O8,"[Element Ba, Element Ca, Element Cu, Element F, Element O]","{'Ba': 2.0, 'Ca': 3.0, 'Cu': 4.0, 'F': 2.0, 'O': 8.0}",Cuprates,5
Bi1Pb1Sr2Ca2Cu3O10,103.5,Bi1 Pb1 Sr2 Ca2 Cu3 O10,"[Element Bi, Element Pb, Element Sr, Element Ca, Element Cu, Element O]","{'Bi': 1.0, 'Pb': 1.0, 'Sr': 2.0, 'Ca': 2.0, 'Cu': 3.0, 'O': 10.0}",Cuprates,6
Ca2Cu1Cl2.25O2,31.0,Ca2 Cu1 Cl2.25 O2,"[Element Ca, Element Cu, Element Cl, Element O]","{'Ca': 2.0, 'Cu': 1.0, 'Cl': 2.25, 'O': 2.0}",Cuprates,4
Ca2Cu1Cl2.3O2,36.0,Ca2 Cu1 Cl2.3 O2,"[Element Ca, Element Cu, Element Cl, Element O]","{'Ca': 2.0, 'Cu': 1.0, 'Cl': 2.3, 'O': 2.0}",Cuprates,4
Ca2Cu1Cl2.4O2,38.0,Ca2 Cu1 Cl2.4 O2,"[Element Ca, Element Cu, Element Cl, Element O]","{'Ca': 2.0, 'Cu': 1.0, 'Cl': 2.4, 'O': 2.0}",Cuprates,4
Ca2Cu1Cl2.5O2,38.0,Ca2 Cu1 Cl2.5 O2,"[Element Ca, Element Cu, Element Cl, Element O]","{'Ca': 2.0, 'Cu': 1.0, 'Cl': 2.5, 'O': 2.0}",Cuprates,4
Ca2Cu1Cl2.18O2,24.0,Ca2 Cu1 Cl2.18 O2,"[Element Ca, Element Cu, Element Cl, Element O]","{'Ca': 2.0, 'Cu': 1.0, 'Cl': 2.18, 'O': 2.0}",Cuprates,4
Ca2Cu1Cl2.2O2,30.0,Ca2 Cu1 Cl2.2 O2,"[Element Ca, Element Cu, Element Cl, Element O]","{'Ca': 2.0, 'Cu': 1.0, 'Cl': 2.2, 'O': 2.0}",Cuprates,4
Fe0.5Ba2Sm1Cu2.5O7.54,8.0,Fe0.5 Ba2 Sm1 Cu2.5 O7.54,"[Element Fe, Element Ba, Element Sm, Element Cu, Element O]","{'Fe': 0.5, 'Ba': 2.0, 'Sm': 1.0, 'Cu': 2.5, 'O': 7.54}",Cuprates,5
Fe0.5Ba2Eu1Cu2.5O7.51,60.0,Fe0.5 Ba2 Eu1 Cu2.5 O7.51,"[Element Fe, Element Ba, Element Eu, Element Cu, Element O]","{'Fe': 0.5, 'Ba': 2.0, 'Eu': 1.0, 'Cu': 2.5, 'O': 7.51}",Cuprates,5
Fe0.5Ba2Ho1Cu2.5O7.49,76.0,Fe0.5 Ba2 Ho1 Cu2.5 O7.49,"[Element Fe, Element Ba, Element Ho, Element Cu, Element O]","{'Fe': 0.5, 'Ba': 2.0, 'Ho': 1.0, 'Cu': 2.5, 'O': 7.49}",Cuprates,5
Fe0.5Ba2Er1Cu2.5O7.46,72.0,Fe0.5 Ba2 Er1 Cu2.5 O7.46,"[Element Fe, Element Ba, Element Er, Element Cu, Element O]","{'Fe': 0.5, 'Ba': 2.0, 'Er': 1.0, 'Cu': 2.5, 'O': 7.46}",Cuprates,5
Fe0.5Ba2Tm1Cu2.5O7.43,60.0,Fe0.5 Ba2 Tm1 Cu2.5 O7.43,"[Element Fe, Element Ba, Element Tm, Element Cu, Element O]","{'Fe': 0.5, 'Ba': 2.0, 'Tm': 1.0, 'Cu': 2.5, 'O': 7.43}",Cuprates,5
Ga1Sr2Tm0.75Ca0.25Cu2O7,28.0,Ga1 Sr2 Tm0.75 Ca0.25 Cu2 O7,"[Element Ga, Element Sr, Element Tm, Element Ca, Element Cu, Element O]","{'Ga': 1.0, 'Sr': 2.0, 'Tm': 0.75, 'Ca': 0.25, 'Cu': 2.0, 'O': 7.0}",Cuprates,6
Ga1Sr2Tm0.7Ca0.3Cu2O7,40.0,Ga1 Sr2 Tm0.7 Ca0.3 Cu2 O7,"[Element Ga, Element Sr, Element Tm, Element Ca, Element Cu, Element O]","{'Ga': 1.0, 'Sr': 2.0, 'Tm': 0.7, 'Ca': 0.3, 'Cu': 2.0, 'O': 7.0}",Cuprates,6
Ga1Sr2Tm0.65Ca0.35Cu2O7,47.0,Ga1 Sr2 Tm0.65 Ca0.35 Cu2 O7,"[Element Ga, Element Sr, Element Tm, Element Ca, Element Cu, Element O]","{'Ga': 1.0, 'Sr': 2.0, 'Tm': 0.65, 'Ca': 0.35, 'Cu': 2.0, 'O': 7.0}",Cuprates,6
Ga1Sr2Tm0.6Ca0.4Cu2O7,51.0,Ga1 Sr2 Tm0.6 Ca0.4 Cu2 O7,"[Element Ga, Element Sr, Element Tm, Element Ca, Element Cu, Element O]","{'Ga': 1.0, 'Sr': 2.0, 'Tm': 0.6, 'Ca': 0.4, 'Cu': 2.0, 'O': 7.0}",Cuprates,6
Ag5Pb2O6,0.048,Ag5 Pb2 O6,"[Element Ag, Element Pb, Element O]","{'Ag': 5.0, 'Pb': 2.0, 'O': 6.0}",Other,3
La1.931Sr0.069Cu1O4,12.0,La1.931 Sr0.069 Cu1 O4,"[Element La, Element Sr, Element Cu, Element O]","{'La': 1.931, 'Sr': 0.069, 'Cu': 1.0, 'O': 4.0}",Cuprates,4
Ca1.85Na0.15Cu1Br2O2,10.0,Ca1.85 Na0.15 Cu1 Br2 O2,"[Element Ca, Element Na, Element Cu, Element Br, Element O]","{'Ca': 1.85, 'Na': 0.15, 'Cu': 1.0, 'Br': 2.0, 'O': 2.0}",Cuprates,5
Ca1.825Na0.175Cu1Br2O2,10.5,Ca1.825 Na0.175 Cu1 Br2 O2,"[Element Ca, Element Na, Element Cu, Element Br, Element O]","{'Ca': 1.825, 'Na': 0.175, 'Cu': 1.0, 'Br': 2.0, 'O': 2.0}",Cuprates,5
Ca1.8Na0.2Cu1Br2O2,11.0,Ca1.8 Na0.2 Cu1 Br2 O2,"[Element Ca, Element Na, Element Cu, Element Br, Element O]","{'Ca': 1.8, 'Na': 0.2, 'Cu': 1.0, 'Br': 2.0, 'O': 2.0}",Cuprates,5
Ca1.75Na0.25Cu1Br2O2,18.0,Ca1.75 Na0.25 Cu1 Br2 O2,"[Element Ca, Element Na, Element Cu, Element Br, Element O]","{'Ca': 1.75, 'Na': 0.25, 'Cu': 1.0, 'Br': 2.0, 'O': 2.0}",Cuprates,5
Ca1.7Na0.3Cu1Br2O2,16.5,Ca1.7 Na0.3 Cu1 Br2 O2,"[Element Ca, Element Na, Element Cu, Element Br, Element O]","{'Ca': 1.7, 'Na': 0.3, 'Cu': 1.0, 'Br': 2.0, 'O': 2.0}",Cuprates,5
Ca1.65Na0.35Cu1Br2O2,18.0,Ca1.65 Na0.35 Cu1 Br2 O2,"[Element Ca, Element Na, Element Cu, Element Br, Element O]","{'Ca': 1.65, 'Na': 0.35, 'Cu': 1.0, 'Br': 2.0, 'O': 2.0}",Cuprates,5
Ca1.875Na0.125Cu1Br1Cl1O2,15.0,Ca1.875 Na0.125 Cu1 Br1 Cl1 O2,"[Element Ca, Element Na, Element Cu, Element Br, Element Cl, Element O]","{'Ca': 1.875, 'Na': 0.125, 'Cu': 1.0, 'Br': 1.0, 'Cl': 1.0, 'O': 2.0}",Cuprates,6
Ca1.85Na0.15Cu1Br1Cl1O2,19.0,Ca1.85 Na0.15 Cu1 Br1 Cl1 O2,"[Element Ca, Element Na, Element Cu, Element Br, Element Cl, Element O]","{'Ca': 1.85, 'Na': 0.15, 'Cu': 1.0, 'Br': 1.0, 'Cl': 1.0, 'O': 2.0}",Cuprates,6
Ca1.825Na0.175Cu1Br1Cl1O2,23.0,Ca1.825 Na0.175 Cu1 Br1 Cl1 O2,"[Element Ca, Element Na, Element Cu, Element Br, Element Cl, Element O]","{'Ca': 1.825, 'Na': 0.175, 'Cu': 1.0, 'Br': 1.0, 'Cl': 1.0, 'O': 2.0}",Cuprates,6
Ca1.8Na0.2Cu1Br1Cl1O2,19.0,Ca1.8 Na0.2 Cu1 Br1 Cl1 O2,"[Element Ca, Element Na, Element Cu, Element Br, Element Cl, Element O]","{'Ca': 1.8, 'Na': 0.2, 'Cu': 1.0, 'Br': 1.0, 'Cl': 1.0, 'O': 2.0}",Cuprates,6
Ca1.75Na0.25Cu1Br1Cl1O2,19.0,Ca1.75 Na0.25 Cu1 Br1 Cl1 O2,"[Element Ca, Element Na, Element Cu, Element Br, Element Cl, Element O]","{'Ca': 1.75, 'Na': 0.25, 'Cu': 1.0, 'Br': 1.0, 'Cl': 1.0, 'O': 2.0}",Cuprates,6
Ca1.7Na0.3Cu1Br1Cl1O2,23.5,Ca1.7 Na0.3 Cu1 Br1 Cl1 O2,"[Element Ca, Element Na, Element Cu, Element Br, Element Cl, Element O]","{'Ca': 1.7, 'Na': 0.3, 'Cu': 1.0, 'Br': 1.0, 'Cl': 1.0, 'O': 2.0}",Cuprates,6
Ca1.65Na0.35Cu1Br1Cl1O2,24.0,Ca1.65 Na0.35 Cu1 Br1 Cl1 O2,"[Element Ca, Element Na, Element Cu, Element Br, Element Cl, Element O]","{'Ca': 1.65, 'Na': 0.35, 'Cu': 1.0, 'Br': 1.0, 'Cl': 1.0, 'O': 2.0}",Cuprates,6
Ca1.875Na0.125Cu1Cl2O2,25.0,Ca1.875 Na0.125 Cu1 Cl2 O2,"[Element Ca, Element Na, Element Cu, Element Cl, Element O]","{'Ca': 1.875, 'Na': 0.125, 'Cu': 1.0, 'Cl': 2.0, 'O': 2.0}",Cuprates,5
Ca1.85Na0.15Cu1Cl2O2,25.0,Ca1.85 Na0.15 Cu1 Cl2 O2,"[Element Ca, Element Na, Element Cu, Element Cl, Element O]","{'Ca': 1.85, 'Na': 0.15, 'Cu': 1.0, 'Cl': 2.0, 'O': 2.0}",Cuprates,5
Ca1.825Na0.175Cu1Cl2O2,26.0,Ca1.825 Na0.175 Cu1 Cl2 O2,"[Element Ca, Element Na, Element Cu, Element Cl, Element O]","{'Ca': 1.825, 'Na': 0.175, 'Cu': 1.0, 'Cl': 2.0, 'O': 2.0}",Cuprates,5
Ca1.8Na0.2Cu1Cl2O2,27.5,Ca1.8 Na0.2 Cu1 Cl2 O2,"[Element Ca, Element Na, Element Cu, Element Cl, Element O]","{'Ca': 1.8, 'Na': 0.2, 'Cu': 1.0, 'Cl': 2.0, 'O': 2.0}",Cuprates,5
Ca1.75Na0.25Cu1Cl2O2,26.5,Ca1.75 Na0.25 Cu1 Cl2 O2,"[Element Ca, Element Na, Element Cu, Element Cl, Element O]","{'Ca': 1.75, 'Na': 0.25, 'Cu': 1.0, 'Cl': 2.0, 'O': 2.0}",Cuprates,5
Ca1.65Na0.35Cu1Cl2O2,28.0,Ca1.65 Na0.35 Cu1 Cl2 O2,"[Element Ca, Element Na, Element Cu, Element Cl, Element O]","{'Ca': 1.65, 'Na': 0.35, 'Cu': 1.0, 'Cl': 2.0, 'O': 2.0}",Cuprates,5
Bi1.4Pb0.6Sr2Ca1Cu2O8,91.0,Bi1.4 Pb0.6 Sr2 Ca1 Cu2 O8,"[Element Bi, Element Pb, Element Sr, Element Ca, Element Cu, Element O]","{'Bi': 1.4, 'Pb': 0.6, 'Sr': 2.0, 'Ca': 1.0, 'Cu': 2.0, 'O': 8.0}",Cuprates,6
Bi1.2Pb0.8Sr2Ca1Cu2O8,93.0,Bi1.2 Pb0.8 Sr2 Ca1 Cu2 O8,"[Element Bi, Element Pb, Element Sr, Element Ca, Element Cu, Element O]","{'Bi': 1.2, 'Pb': 0.8, 'Sr': 2.0, 'Ca': 1.0, 'Cu': 2.0, 'O': 8.0}",Cuprates,6
Be22Mo1,2.51,Be22 Mo1,"[Element Be, Element Mo]","{'Be': 22.0, 'Mo': 1.0}",Other,2
Be22W1,4.12,Be22 W1,"[Element Be, Element W]","{'Be': 22.0, 'W': 1.0}",Other,2
Be22Tc1,5.21,Be22 Tc1,"[Element Be, Element Tc]","{'Be': 22.0, 'Tc': 1.0}",Other,2
Be22Re1,9.65,Be22 Re1,"[Element Be, Element Re]","{'Be': 22.0, 'Re': 1.0}",Other,2
Mo0.18U0.82,2.115,Mo0.18 U0.82,"[Element Mo, Element U]","{'Mo': 0.18, 'U': 0.82}",Other,2
C3La2,13.5,C3 La2,"[Element C, Element La]","{'C': 3.0, 'La': 2.0}",Other,2
La1.72Sr0.28Cu1O4,4.98,La1.72 Sr0.28 Cu1 O4,"[Element La, Element Sr, Element Cu, Element O]","{'La': 1.72, 'Sr': 0.28, 'Cu': 1.0, 'O': 4.0}",Cuprates,4
B2Mg1,38.0,B2 Mg1,"[Element B, Element Mg]","{'B': 2.0, 'Mg': 1.0}",Other,2
Mg1B0.96C0.04,35.5,Mg1 B0.96 C0.04,"[Element Mg, Element B, Element C]","{'Mg': 1.0, 'B': 0.96, 'C': 0.04}",Other,3
Mg1B0.9C0.1,30.0,Mg1 B0.9 C0.1,"[Element Mg, Element B, Element C]","{'Mg': 1.0, 'B': 0.9, 'C': 0.1}",Other,3
Mg1B0.85C0.15,24.0,Mg1 B0.85 C0.15,"[Element Mg, Element B, Element C]","{'Mg': 1.0, 'B': 0.85, 'C': 0.15}",Other,3
Li2Pt3B1,2.17,Li2 Pt3 B1,"[Element Li, Element Pt, Element B]","{'Li': 2.0, 'Pt': 3.0, 'B': 1.0}",Other,3
Pu0.9U0.1Co1Ga5,8.4,Pu0.9 U0.1 Co1 Ga5,"[Element Pu, Element U, Element Co, Element Ga]","{'Pu': 0.9, 'U': 0.1, 'Co': 1.0, 'Ga': 5.0}",Other,4
U0.9Np0.1Co1Ga5,7.2,U0.9 Np0.1 Co1 Ga5,"[Element U, Element Np, Element Co, Element Ga]","{'U': 0.9, 'Np': 0.1, 'Co': 1.0, 'Ga': 5.0}",Other,4
Pu1Co0.5Rh0.5Ga5,15.5,Pu1 Co0.5 Rh0.5 Ga5,"[Element Pu, Element Co, Element Rh, Element Ga]","{'Pu': 1.0, 'Co': 0.5, 'Rh': 0.5, 'Ga': 5.0}",Other,4
Pu1Co0.1Rh0.9Ga5,10.2,Pu1 Co0.1 Rh0.9 Ga5,"[Element Pu, Element Co, Element Rh, Element Ga]","{'Pu': 1.0, 'Co': 0.1, 'Rh': 0.9, 'Ga': 5.0}",Other,4
Pu1Rh1Ga5,8.9,Pu1 Rh1 Ga5,"[Element Pu, Element Rh, Element Ga]","{'Pu': 1.0, 'Rh': 1.0, 'Ga': 5.0}",Other,3
Pu1Co0.9Fe0.1Ga5,13.5,Pu1 Co0.9 Fe0.1 Ga5,"[Element Pu, Element Co, Element Fe, Element Ga]","{'Pu': 1.0, 'Co': 0.9, 'Fe': 0.1, 'Ga': 5.0}",Fe-based,4
Pu1Co0.8Fe0.2Ga5,10.0,Pu1 Co0.8 Fe0.2 Ga5,"[Element Pu, Element Co, Element Fe, Element Ga]","{'Pu': 1.0, 'Co': 0.8, 'Fe': 0.2, 'Ga': 5.0}",Fe-based,4
Pu1Co0.9Ni0.1Ga5,16.6,Pu1 Co0.9 Ni0.1 Ga5,"[Element Pu, Element Co, Element Ni, Element Ga]","{'Pu': 1.0, 'Co': 0.9, 'Ni': 0.1, 'Ga': 5.0}",Other,4
C2Na1,5.0,C2 Na1,"[Element C, Element Na]","{'C': 2.0, 'Na': 1.0}",Other,2
C3Na1,2.3,C3 Na1,"[Element C, Element Na]","{'C': 3.0, 'Na': 1.0}",Other,2
Ag7N1O11,1.04,Ag7 N1 O11,"[Element Ag, Element N, Element O]","{'Ag': 7.0, 'N': 1.0, 'O': 11.0}",Other,3