chemical_formula,Tc,composition,elements,stoichiometry,Category,num_elements
La0.95Ce0.05Ru4P12,6.8,La0.95 Ce0.05 Ru4 P12,"[Element La, Element Ce, Element Ru, Element P]","{'La': 0.95, 'Ce': 0.05, 'Ru': 4.0, 'P': 12.0}",Other,4
La0.9Ce0.1Ru4P12,4.8,La0.9 Ce0.1 Ru4 P12,"[Element La, Element Ce, Element Ru, Element P]","{'La': 0.9, 'Ce': 0.1, 'Ru': 4.0, 'P': 12.0}",Other,4
Al0.99Li0.01,1.07,Al0.99 Li0.01,"[Element Al, Element Li]","{'Al': 0.99, 'Li': 0.01}",Other,2
Al0.97Li0.03,1.05,Al0.97 Li0.03,"[Element Al, Element Li]","{'Al': 0.97, 'Li': 0.03}",Other,2
Al0.95Li0.05,1.13,Al0.95 Li0.05,"[Element Al, Element Li]","{'Al': 0.95, 'Li': 0.05}",Other,2
Al0.9Li0.1,1.29,Al0.9 Li0.1,"[Element Al, Element Li]","{'Al': 0.9, 'Li': 0.1}",Other,2
Pr1.85Ce0.15Cu1O4.175,16.25,Pr1.85 Ce0.15 Cu1 O4.175,"[Element Pr, Element Ce, Element Cu, Element O]","{'Pr': 1.85, 'Ce': 0.15, 'Cu': 1.0, 'O': 4.175}",Cuprates,4
Pr1.85Ce0.15Cu1O4.161,18.85,Pr1.85 Ce0.15 Cu1 O4.161,"[Element Pr, Element Ce, Element Cu, Element O]","{'Pr': 1.85, 'Ce': 0.15, 'Cu': 1.0, 'O': 4.161}",Cuprates,4
Pr1.85Ce0.15Cu1O4.065,16.75,Pr1.85 Ce0.15 Cu1 O4.065,"[Element Pr, Element Ce, Element Cu, Element O]","{'Pr': 1.85, 'Ce': 0.15, 'Cu': 1.0, 'O': 4.065}",Cuprates,4
Pr1.85Ce0.15Cu0.998Ni0.002O4.065,15.89,Pr1.85 Ce0.15 Cu0.998 Ni0.002 O4.065,"[Element Pr, Element Ce, Element Cu, Element Ni, Element O]","{'Pr': 1.85, 'Ce': 0.15, 'Cu': 0.998, 'Ni': 0.002, 'O': 4.065}",Cuprates,5
Pr1.85Ce0.15Cu0.995Ni0.005O4.065,11.92,Pr1.85 Ce0.15 Cu0.995 Ni0.005 O4.065,"[Element Pr, Element Ce, Element Cu, Element Ni, Element O]","{'Pr': 1.85, 'Ce': 0.15, 'Cu': 0.995, 'Ni': 0.005, 'O': 4.065}",Cuprates,5
Pr1.85Ce0.15Cu0.993Ni0.007O4.065,7.02,Pr1.85 Ce0.15 Cu0.993 Ni0.007 O4.065,"[Element Pr, Element Ce, Element Cu, Element Ni, Element O]","{'Pr': 1.85, 'Ce': 0.15, 'Cu': 0.993, 'Ni': 0.007, 'O': 4.065}",Cuprates,5
Pr1.85Ce0.15Cu0.99Ni0.01O4.065,0.93,Pr1.85 Ce0.15 Cu0.99 Ni0.01 O4.065,"[Element Pr, Element Ce, Element Cu, Element Ni, Element O]","{'Pr': 1.85, 'Ce': 0.15, 'Cu': 0.99, 'Ni': 0.01, 'O': 4.065}",Cuprates,5
C6Sr1,1.65,C6 Sr1,"[Element C, Element Sr]","{'C': 6.0, 'Sr': 1.0}",Other,2
Tm1Ba2Cu3O6.99,89.8,Tm1 Ba2 Cu3 O6.99,"[Element Tm, Element Ba, Element Cu, Element O]","{'Tm': 1.0, 'Ba': 2.0, 'Cu': 3.0, 'O': 6.99}",Cuprates,4
Tm1Ba2Cu3O6.96,89.88,Tm1 Ba2 Cu3 O6.96,"[Element Tm, Element Ba, Element Cu, Element O]","{'Tm': 1.0, 'Ba': 2.0, 'Cu': 3.0, 'O': 6.96}",Cuprates,4
Tm1Ba2Cu3O6.91,90.36,Tm1 Ba2 Cu3 O6.91,"[Element Tm, Element Ba, Element Cu, Element O]","{'Tm': 1.0, 'Ba': 2.0, 'Cu': 3.0, 'O': 6.91}",Cuprates,4
Tm1Ba2Cu3O6.94,89.88,Tm1 Ba2 Cu3 O6.94,"[Element Tm, Element Ba, Element Cu, Element O]","{'Tm': 1.0, 'Ba': 2.0, 'Cu': 3.0, 'O': 6.94}",Cuprates,4
Tm1Ba2Cu3O6.86,87.2,Tm1 Ba2 Cu3 O6.86,"[Element Tm, Element Ba, Element Cu, Element O]","{'Tm': 1.0, 'Ba': 2.0, 'Cu': 3.0, 'O': 6.86}",Cuprates,4
Tm1Ba2Cu3O6.87,83.6,Tm1 Ba2 Cu3 O6.87,"[Element Tm, Element Ba, Element Cu, Element O]","{'Tm': 1.0, 'Ba': 2.0, 'Cu': 3.0, 'O': 6.87}",Cuprates,4
Tm1Ba2Cu3O6.8,79.8,Tm1 Ba2 Cu3 O6.8,"[Element Tm, Element Ba, Element Cu, Element O]","{'Tm': 1.0, 'Ba': 2.0, 'Cu': 3.0, 'O': 6.8}",Cuprates,4
Tm1Ba2Cu3O6.72,64.5,Tm1 Ba2 Cu3 O6.72,"[Element Tm, Element Ba, Element Cu, Element O]","{'Tm': 1.0, 'Ba': 2.0, 'Cu': 3.0, 'O': 6.72}",Cuprates,4
Na1Al1Si1,7.0,Na1 Al1 Si1,"[Element Na, Element Al, Element Si]","{'Na': 1.0, 'Al': 1.0, 'Si': 1.0}",Other,3
Ga9Rh2,1.9,Ga9 Rh2,"[Element Ga, Element Rh]","{'Ga': 9.0, 'Rh': 2.0}",Other,2
Ga9Ir2,2.2,Ga9 Ir2,"[Element Ga, Element Ir]","{'Ga': 9.0, 'Ir': 2.0}",Other,2
Sr2Ca3Cu4F2O8.6,38.0,Sr2 Ca3 Cu4 F2 O8.6,"[Element Sr, Element Ca, Element Cu, Element F, Element O]","{'Sr': 2.0, 'Ca': 3.0, 'Cu': 4.0, 'F': 2.0, 'O': 8.6}",Cuprates,5
Sr2Ca3Cu4F2O8.8,72.0,Sr2 Ca3 Cu4 F2 O8.8,"[Element Sr, Element Ca, Element Cu, Element F, Element O]","{'Sr': 2.0, 'Ca': 3.0, 'Cu': 4.0, 'F': 2.0, 'O': 8.8}",Cuprates,5
Sr2Ca3Cu4F3.8O8,95.0,Sr2 Ca3 Cu4 F3.8 O8,"[Element Sr, Element Ca, Element Cu, Element F, Element O]","{'Sr': 2.0, 'Ca': 3.0, 'Cu': 4.0, 'F': 3.8, 'O': 8.0}",Cuprates,5
Sr2Ca4Cu5F2O10.57,40.0,Sr2 Ca4 Cu5 F2 O10.57,"[Element Sr, Element Ca, Element Cu, Element F, Element O]","{'Sr': 2.0, 'Ca': 4.0, 'Cu': 5.0, 'F': 2.0, 'O': 10.57}",Cuprates,5
Li0.33V2O5,8.5,Li0.33 V2 O5,"[Element Li, Element V, Element O]","{'Li': 0.33, 'V': 2.0, 'O': 5.0}",Other,3
Tm0.9Lu0.1Fe3Si5,1.65,Tm0.9 Lu0.1 Fe3 Si5,"[Element Tm, Element Lu, Element Fe, Element Si]","{'Tm': 0.9, 'Lu': 0.1, 'Fe': 3.0, 'Si': 5.0}",Fe-based,4
Tm0.84Lu0.16Fe3Si5,2.44,Tm0.84 Lu0.16 Fe3 Si5,"[Element Tm, Element Lu, Element Fe, Element Si]","{'Tm': 0.84, 'Lu': 0.16, 'Fe': 3.0, 'Si': 5.0}",Fe-based,4
Tm0.8Lu0.2Fe3Si5,2.79,Tm0.8 Lu0.2 Fe3 Si5,"[Element Tm, Element Lu, Element Fe, Element Si]","{'Tm': 0.8, 'Lu': 0.2, 'Fe': 3.0, 'Si': 5.0}",Fe-based,4
Lu1Fe3Si5,6.0,Lu1 Fe3 Si5,"[Element Lu, Element Fe, Element Si]","{'Lu': 1.0, 'Fe': 3.0, 'Si': 5.0}",Fe-based,3
Sc1Fe3Si5,4.3,Sc1 Fe3 Si5,"[Element Sc, Element Fe, Element Si]","{'Sc': 1.0, 'Fe': 3.0, 'Si': 5.0}",Fe-based,3
Ce1Pt3Si0.97Ge0.03,0.63,Ce1 Pt3 Si0.97 Ge0.03,"[Element Ce, Element Pt, Element Si, Element Ge]","{'Ce': 1.0, 'Pt': 3.0, 'Si': 0.97, 'Ge': 0.03}",Other,4
Ce1Pt3Si0.94Ge0.06,0.56,Ce1 Pt3 Si0.94 Ge0.06,"[Element Ce, Element Pt, Element Si, Element Ge]","{'Ce': 1.0, 'Pt': 3.0, 'Si': 0.94, 'Ge': 0.06}",Other,4
Ce1Pt3Si0.9Ge0.1,0.31,Ce1 Pt3 Si0.9 Ge0.1,"[Element Ce, Element Pt, Element Si, Element Ge]","{'Ce': 1.0, 'Pt': 3.0, 'Si': 0.9, 'Ge': 0.1}",Other,4
Cu0.055Ti1Se2,2.24,Cu0.055 Ti1 Se2,"[Element Cu, Element Ti, Element Se]","{'Cu': 0.055, 'Ti': 1.0, 'Se': 2.0}",Other,3
Cu0.065Ti1Se2,3.4,Cu0.065 Ti1 Se2,"[Element Cu, Element Ti, Element Se]","{'Cu': 0.065, 'Ti': 1.0, 'Se': 2.0}",Other,3
La1Rh1Si3,2.2,La1 Rh1 Si3,"[Element La, Element Rh, Element Si]","{'La': 1.0, 'Rh': 1.0, 'Si': 3.0}",Other,3
Ca1Si1.9,1.35,Ca1 Si1.9,"[Element Ca, Element Si]","{'Ca': 1.0, 'Si': 1.9}",Other,2
Ca1Si2.2,1.37,Ca1 Si2.2,"[Element Ca, Element Si]","{'Ca': 1.0, 'Si': 2.2}",Other,2
Si2Sr1,3.1,Si2 Sr1,"[Element Si, Element Sr]","{'Si': 2.0, 'Sr': 1.0}",Other,2
Ba1Ge2,4.93,Ba1 Ge2,"[Element Ba, Element Ge]","{'Ba': 1.0, 'Ge': 2.0}",Other,2
Sc1Tc2,10.9,Sc1 Tc2,"[Element Sc, Element Tc]","{'Sc': 1.0, 'Tc': 2.0}",Other,2
Lu1Tc2,9.9,Lu1 Tc2,"[Element Lu, Element Tc]","{'Lu': 1.0, 'Tc': 2.0}",Other,2
Lu1Re2,1.7,Lu1 Re2,"[Element Lu, Element Re]","{'Lu': 1.0, 'Re': 2.0}",Other,2
Mo1.9Nb0.1B1C1,6.7,Mo1.9 Nb0.1 B1 C1,"[Element Mo, Element Nb, Element B, Element C]","{'Mo': 1.9, 'Nb': 0.1, 'B': 1.0, 'C': 1.0}",Other,4
Mo1.85Nb0.15B1C1,6.2,Mo1.85 Nb0.15 B1 C1,"[Element Mo, Element Nb, Element B, Element C]","{'Mo': 1.85, 'Nb': 0.15, 'B': 1.0, 'C': 1.0}",Other,4
Mo1.94Hf0.06B1C1,5.8,Mo1.94 Hf0.06 B1 C1,"[Element Mo, Element Hf, Element B, Element C]","{'Mo': 1.94, 'Hf': 0.06, 'B': 1.0, 'C': 1.0}",Other,4
Mo1.905Hf0.095B1C1,5.0,Mo1.905 Hf0.095 B1 C1,"[Element Mo, Element Hf, Element B, Element C]","{'Mo': 1.905, 'Hf': 0.095, 'B': 1.0, 'C': 1.0}",Other,4
Mo1.86Ta0.14B1C1,5.6,Mo1.86 Ta0.14 B1 C1,"[Element Mo, Element Ta, Element B, Element C]","{'Mo': 1.86, 'Ta': 0.14, 'B': 1.0, 'C': 1.0}",Other,4
Mo1.7Ta0.3B1C1,4.6,Mo1.7 Ta0.3 B1 C1,"[Element Mo, Element Ta, Element B, Element C]","{'Mo': 1.7, 'Ta': 0.3, 'B': 1.0, 'C': 1.0}",Other,4
Mo1.8W0.2B1C1,6.82,Mo1.8 W0.2 B1 C1,"[Element Mo, Element W, Element B, Element C]","{'Mo': 1.8, 'W': 0.2, 'B': 1.0, 'C': 1.0}",Other,4
Mo1.8Rh0.2B1C1,9.1,Mo1.8 Rh0.2 B1 C1,"[Element Mo, Element Rh, Element B, Element C]","{'Mo': 1.8, 'Rh': 0.2, 'B': 1.0, 'C': 1.0}",Other,4
Mg12Ir19B16,5.7,Mg12 Ir19 B16,"[Element Mg, Element Ir, Element B]","{'Mg': 12.0, 'Ir': 19.0, 'B': 16.0}",Other,3
Th1Rh0.1Si1.9,2.15,Th1 Rh0.1 Si1.9,"[Element Th, Element Rh, Element Si]","{'Th': 1.0, 'Rh': 0.1, 'Si': 1.9}",Other,3
Th1Rh0.85Si1.15,5.48,Th1 Rh0.85 Si1.15,"[Element Th, Element Rh, Element Si]","{'Th': 1.0, 'Rh': 0.85, 'Si': 1.15}",Other,3
Th1Ir0.1Si1.9,2.75,Th1 Ir0.1 Si1.9,"[Element Th, Element Ir, Element Si]","{'Th': 1.0, 'Ir': 0.1, 'Si': 1.9}",Other,3
Th1Ir0.75Si1.25,3.82,Th1 Ir0.75 Si1.25,"[Element Th, Element Ir, Element Si]","{'Th': 1.0, 'Ir': 0.75, 'Si': 1.25}",Other,3
Th1Ir1Si1,6.5,Th1 Ir1 Si1,"[Element Th, Element Ir, Element Si]","{'Th': 1.0, 'Ir': 1.0, 'Si': 1.0}",Other,3
La1Rh1Si1,4.35,La1 Rh1 Si1,"[Element La, Element Rh, Element Si]","{'La': 1.0, 'Rh': 1.0, 'Si': 1.0}",Other,3
La1Ir1Si1,2.3,La1 Ir1 Si1,"[Element La, Element Ir, Element Si]","{'La': 1.0, 'Ir': 1.0, 'Si': 1.0}",Other,3
Er5Os4Si15,5.5,Er5 Os4 Si15,"[Element Er, Element Os, Element Si]","{'Er': 5.0, 'Os': 4.0, 'Si': 15.0}",Other,3
Tb5Os4Si15,3.2,Tb5 Os4 Si15,"[Element Tb, Element Os, Element Si]","{'Tb': 5.0, 'Os': 4.0, 'Si': 15.0}",Other,3
Ho5Os4Si15,4.5,Ho5 Os4 Si15,"[Element Ho, Element Os, Element Si]","{'Ho': 5.0, 'Os': 4.0, 'Si': 15.0}",Other,3
Tm4Os4Si13,2.6,Tm4 Os4 Si13,"[Element Tm, Element Os, Element Si]","{'Tm': 4.0, 'Os': 4.0, 'Si': 13.0}",Other,3
Li0.3Ti1.1S2,13.0,Li0.3 Ti1.1 S2,"[Element Li, Element Ti, Element S]","{'Li': 0.3, 'Ti': 1.1, 'S': 2.0}",Other,3
S2Ti1,45.0,S2 Ti1,"[Element S, Element Ti]","{'S': 2.0, 'Ti': 1.0}",Other,2
Rb2.7Tl2.2C60,23.2,Rb2.7 Tl2.2 C60,"[Element Rb, Element Tl, Element C]","{'Rb': 2.7, 'Tl': 2.2, 'C': 60.0}",Other,3
La1Ir2Si2,1.56,La1 Ir2 Si2,"[Element La, Element Ir, Element Si]","{'La': 1.0, 'Ir': 2.0, 'Si': 2.0}",Other,3
Ag0.76Sn1.24Se2,6.72,Ag0.76 Sn1.24 Se2,"[Element Ag, Element Sn, Element Se]","{'Ag': 0.76, 'Sn': 1.24, 'Se': 2.0}",Other,3
U1Co1Ge1,0.8,U1 Co1 Ge1,"[Element U, Element Co, Element Ge]","{'U': 1.0, 'Co': 1.0, 'Ge': 1.0}",Other,3
Na0.3Co0.995Mn0.005H2.6O3.3,4.05,Na0.3 Co0.995 Mn0.005 H2.6 O3.3,"[Element Na, Element Co, Element Mn, Element H, Element O]","{'Na': 0.3, 'Co': 0.995, 'Mn': 0.005, 'H': 2.6, 'O': 3.3}",Hydrides,5
Na0.3Co0.985Mn0.015H2.6O3.3,3.34,Na0.3 Co0.985 Mn0.015 H2.6 O3.3,"[Element Na, Element Co, Element Mn, Element H, Element O]","{'Na': 0.3, 'Co': 0.985, 'Mn': 0.015, 'H': 2.6, 'O': 3.3}",Hydrides,5
Ca1.89Na0.11Cu1Cl2O2,15.14,Ca1.89 Na0.11 Cu1 Cl2 O2,"[Element Ca, Element Na, Element Cu, Element Cl, Element O]","{'Ca': 1.89, 'Na': 0.11, 'Cu': 1.0, 'Cl': 2.0, 'O': 2.0}",Cuprates,5
Ca1.81Na0.19Cu1Cl2O2,27.7,Ca1.81 Na0.19 Cu1 Cl2 O2,"[Element Ca, Element Na, Element Cu, Element Cl, Element O]","{'Ca': 1.81, 'Na': 0.19, 'Cu': 1.0, 'Cl': 2.0, 'O': 2.0}",Cuprates,5
Na0.33H2.86Co1O3.42,4.5,Na0.33 H2.86 Co1 O3.42,"[Element Na, Element H, Element Co, Element O]","{'Na': 0.33, 'H': 2.86, 'Co': 1.0, 'O': 3.42}",Hydrides,4
Bi2Sr1.6La0.4Cu1O6.36,31.2,Bi2 Sr1.6 La0.4 Cu1 O6.36,"[Element Bi, Element Sr, Element La, Element Cu, Element O]","{'Bi': 2.0, 'Sr': 1.6, 'La': 0.4, 'Cu': 1.0, 'O': 6.36}",Cuprates,5
Bi2Sr2Ca1Cu2O8.12,81.3,Bi2 Sr2 Ca1 Cu2 O8.12,"[Element Bi, Element Sr, Element Ca, Element Cu, Element O]","{'Bi': 2.0, 'Sr': 2.0, 'Ca': 1.0, 'Cu': 2.0, 'O': 8.12}",Cuprates,5
Bi2Sr2Ca2Cu3O10.28,108.7,Bi2 Sr2 Ca2 Cu3 O10.28,"[Element Bi, Element Sr, Element Ca, Element Cu, Element O]","{'Bi': 2.0, 'Sr': 2.0, 'Ca': 2.0, 'Cu': 3.0, 'O': 10.28}",Cuprates,5
Ti2In1C1,3.1,Ti2 In1 C1,"[Element Ti, Element In, Element C]","{'Ti': 2.0, 'In': 1.0, 'C': 1.0}",Other,3
Nb2As1C1,2.0,Nb2 As1 C1,"[Element Nb, Element As, Element C]","{'Nb': 2.0, 'As': 1.0, 'C': 1.0}",Other,3
Ba1Pt4Ge12,5.35,Ba1 Pt4 Ge12,"[Element Ba, Element Pt, Element Ge]","{'Ba': 1.0, 'Pt': 4.0, 'Ge': 12.0}",Other,3
Sr1Pt4Ge12,5.1,Sr1 Pt4 Ge12,"[Element Sr, Element Pt, Element Ge]","{'Sr': 1.0, 'Pt': 4.0, 'Ge': 12.0}",Other,3
Cu0.7Ti1Se2,3.9,Cu0.7 Ti1 Se2,"[Element Cu, Element Ti, Element Se]","{'Cu': 0.7, 'Ti': 1.0, 'Se': 2.0}",Other,3
U1Ru1.99Re0.01Si2,0.23,U1 Ru1.99 Re0.01 Si2,"[Element U, Element Ru, Element Re, Element Si]","{'U': 1.0, 'Ru': 1.99, 'Re': 0.01, 'Si': 2.0}",Other,4
Er1Ni1.94Fe0.06B2C1,8.5,Er1 Ni1.94 Fe0.06 B2 C1,"[Element Er, Element Ni, Element Fe, Element B, Element C]","{'Er': 1.0, 'Ni': 1.94, 'Fe': 0.06, 'B': 2.0, 'C': 1.0}",Fe-based,5
Er1Ni1.92Fe0.08B2C1,4.63,Er1 Ni1.92 Fe0.08 B2 C1,"[Element Er, Element Ni, Element Fe, Element B, Element C]","{'Er': 1.0, 'Ni': 1.92, 'Fe': 0.08, 'B': 2.0, 'C': 1.0}",Fe-based,5
Er1Ni1.9Fe0.1B2C1,4.31,Er1 Ni1.9 Fe0.1 B2 C1,"[Element Er, Element Ni, Element Fe, Element B, Element C]","{'Er': 1.0, 'Ni': 1.9, 'Fe': 0.1, 'B': 2.0, 'C': 1.0}",Fe-based,5
Tm1Ni1.96Fe0.04B2C1,7.97,Tm1 Ni1.96 Fe0.04 B2 C1,"[Element Tm, Element Ni, Element Fe, Element B, Element C]","{'Tm': 1.0, 'Ni': 1.96, 'Fe': 0.04, 'B': 2.0, 'C': 1.0}",Fe-based,5
Tm1Ni1.92Fe0.08B2C1,7.39,Tm1 Ni1.92 Fe0.08 B2 C1,"[Element Tm, Element Ni, Element Fe, Element B, Element C]","{'Tm': 1.0, 'Ni': 1.92, 'Fe': 0.08, 'B': 2.0, 'C': 1.0}",Fe-based,5
Tm1Ni1.9Fe0.1B2C1,6.64,Tm1 Ni1.9 Fe0.1 B2 C1,"[Element Tm, Element Ni, Element Fe, Element B, Element C]","{'Tm': 1.0, 'Ni': 1.9, 'Fe': 0.1, 'B': 2.0, 'C': 1.0}",Fe-based,5
Tm1Ni1.88Fe0.12B2C1,5.52,Tm1 Ni1.88 Fe0.12 B2 C1,"[Element Tm, Element Ni, Element Fe, Element B, Element C]","{'Tm': 1.0, 'Ni': 1.88, 'Fe': 0.12, 'B': 2.0, 'C': 1.0}",Fe-based,5
Tm1Ni1.84Fe0.16B2C1,3.99,Tm1 Ni1.84 Fe0.16 B2 C1,"[Element Tm, Element Ni, Element Fe, Element B, Element C]","{'Tm': 1.0, 'Ni': 1.84, 'Fe': 0.16, 'B': 2.0, 'C': 1.0}",Fe-based,5
La1Pt4Ge12,8.27,La1 Pt4 Ge12,"[Element La, Element Pt, Element Ge]","{'La': 1.0, 'Pt': 4.0, 'Ge': 12.0}",Other,3
Pr1Pt4Ge12,7.91,Pr1 Pt4 Ge12,"[Element Pr, Element Pt, Element Ge]","{'Pr': 1.0, 'Pt': 4.0, 'Ge': 12.0}",Other,3
Hg0.9Cr0.1Sr2Cu1O4,62.3,Hg0.9 Cr0.1 Sr2 Cu1 O4,"[Element Hg, Element Cr, Element Sr, Element Cu, Element O]","{'Hg': 0.9, 'Cr': 0.1, 'Sr': 2.0, 'Cu': 1.0, 'O': 4.0}",Cuprates,5
Hg0.2Cr0.8Sr2Cu1O4,53.6,Hg0.2 Cr0.8 Sr2 Cu1 O4,"[Element Hg, Element Cr, Element Sr, Element Cu, Element O]","{'Hg': 0.2, 'Cr': 0.8, 'Sr': 2.0, 'Cu': 1.0, 'O': 4.0}",Cuprates,5
B2Os1,2.17,B2 Os1,"[Element B, Element Os]","{'B': 2.0, 'Os': 1.0}",Other,2
B2Ru1,1.6,B2 Ru1,"[Element B, Element Ru]","{'B': 2.0, 'Ru': 1.0}",Other,2
V2Ir1B2,1.12,V2 Ir1 B2,"[Element V, Element Ir, Element B]","{'V': 2.0, 'Ir': 1.0, 'B': 2.0}",Other,3
Mo2Ir1B2,3.6,Mo2 Ir1 B2,"[Element Mo, Element Ir, Element B]","{'Mo': 2.0, 'Ir': 1.0, 'B': 2.0}",Other,3
Mo1.75Ru1.25B2,3.7,Mo1.75 Ru1.25 B2,"[Element Mo, Element Ru, Element B]","{'Mo': 1.75, 'Ru': 1.25, 'B': 2.0}",Other,3
W1.75Ru1.25B2,3.38,W1.75 Ru1.25 B2,"[Element W, Element Ru, Element B]","{'W': 1.75, 'Ru': 1.25, 'B': 2.0}",Other,3
La1Bi1Pt1,0.9,La1 Bi1 Pt1,"[Element La, Element Bi, Element Pt]","{'La': 1.0, 'Bi': 1.0, 'Pt': 1.0}",Other,3
La3Pr0.3In1,6.2,La3 Pr0.3 In1,"[Element La, Element Pr, Element In]","{'La': 3.0, 'Pr': 0.3, 'In': 1.0}",Other,3
La3Pr0.6In1,3.2,La3 Pr0.6 In1,"[Element La, Element Pr, Element In]","{'La': 3.0, 'Pr': 0.6, 'In': 1.0}",Other,3
La3Pr0.75In1,1.94,La3 Pr0.75 In1,"[Element La, Element Pr, Element In]","{'La': 3.0, 'Pr': 0.75, 'In': 1.0}",Other,3
La0.9985Tb0.0015Al2,2.9,La0.9985 Tb0.0015 Al2,"[Element La, Element Tb, Element Al]","{'La': 0.9985, 'Tb': 0.0015, 'Al': 2.0}",Other,3
La0.996Tb0.004Al2,2.4,La0.996 Tb0.004 Al2,"[Element La, Element Tb, Element Al]","{'La': 0.996, 'Tb': 0.004, 'Al': 2.0}",Other,3
La0.992Tb0.008Al2,1.61,La0.992 Tb0.008 Al2,"[Element La, Element Tb, Element Al]","{'La': 0.992, 'Tb': 0.008, 'Al': 2.0}",Other,3
La0.988Tb0.012Al2,0.94,La0.988 Tb0.012 Al2,"[Element La, Element Tb, Element Al]","{'La': 0.988, 'Tb': 0.012, 'Al': 2.0}",Other,3
La1Al1.995Si0.005,2.9,La1 Al1.995 Si0.005,"[Element La, Element Al, Element Si]","{'La': 1.0, 'Al': 1.995, 'Si': 0.005}",Other,3
Ni2Hf1Al1,0.74,Ni2 Hf1 Al1,"[Element Ni, Element Hf, Element Al]","{'Ni': 2.0, 'Hf': 1.0, 'Al': 1.0}",Other,3
Ni2Hf1Ga1,1.12,Ni2 Hf1 Ga1,"[Element Ni, Element Hf, Element Ga]","{'Ni': 2.0, 'Hf': 1.0, 'Ga': 1.0}",Other,3
Ni2Nb1Sn1,3.4,Ni2 Nb1 Sn1,"[Element Ni, Element Nb, Element Sn]","{'Ni': 2.0, 'Nb': 1.0, 'Sn': 1.0}",Other,3
La0.92Tm0.08Sn3,5.17,La0.92 Tm0.08 Sn3,"[Element La, Element Tm, Element Sn]","{'La': 0.92, 'Tm': 0.08, 'Sn': 3.0}",Other,3
B2.2Nb1,3.6,B2.2 Nb1,"[Element B, Element Nb]","{'B': 2.2, 'Nb': 1.0}",Other,2
B2.34Nb1,9.16,B2.34 Nb1,"[Element B, Element Nb]","{'B': 2.34, 'Nb': 1.0}",Other,2
Ce1Ir0.75Co0.25In5,1.52,Ce1 Ir0.75 Co0.25 In5,"[Element Ce, Element Ir, Element Co, Element In]","{'Ce': 1.0, 'Ir': 0.75, 'Co': 0.25, 'In': 5.0}",Other,4
Ce1Ir0.3Co0.7In5,2.0,Ce1 Ir0.3 Co0.7 In5,"[Element Ce, Element Ir, Element Co, Element In]","{'Ce': 1.0, 'Ir': 0.3, 'Co': 0.7, 'In': 5.0}",Other,4
Li0.9Mg0.1,11.0,Li0.9 Mg0.1,"[Element Li, Element Mg]","{'Li': 0.9, 'Mg': 0.1}",Other,2
Ce1Pt2.94Ni0.06Si1,0.545,Ce1 Pt2.94 Ni0.06 Si1,"[Element Ce, Element Pt, Element Ni, Element Si]","{'Ce': 1.0, 'Pt': 2.94, 'Ni': 0.06, 'Si': 1.0}",Other,4
Ce1Pt2.82Ni0.18Si1,0.473,Ce1 Pt2.82 Ni0.18 Si1,"[Element Ce, Element Pt, Element Ni, Element Si]","{'Ce': 1.0, 'Pt': 2.82, 'Ni': 0.18, 'Si': 1.0}",Other,4
In3Rh1,0.19,In3 Rh1,"[Element In, Element Rh]","{'In': 3.0, 'Rh': 1.0}",Other,2
Bi1.6Pb0.4Sr2Ca2Cu3O10,108.0,Bi1.6 Pb0.4 Sr2 Ca2 Cu3 O10,"[Element Bi, Element Pb, Element Sr, Element Ca, Element Cu, Element O]","{'Bi': 1.6, 'Pb': 0.4, 'Sr': 2.0, 'Ca': 2.0, 'Cu': 3.0, 'O': 10.0}",Cuprates,6
La1.901Ba0.099Cu1O4,12.3,La1.901 Ba0.099 Cu1 O4,"[Element La, Element Ba, Element Cu, Element O]","{'La': 1.901, 'Ba': 0.099, 'Cu': 1.0, 'O': 4.0}",Cuprates,4
La1.89Na0.11Cu1O4,16.0,La1.89 Na0.11 Cu1 O4,"[Element La, Element Na, Element Cu, Element O]","{'La': 1.89, 'Na': 0.11, 'Cu': 1.0, 'O': 4.0}",Cuprates,4
La1.59Na0.41Cu1O4,18.0,La1.59 Na0.41 Cu1 O4,"[Element La, Element Na, Element Cu, Element O]","{'La': 1.59, 'Na': 0.41, 'Cu': 1.0, 'O': 4.0}",Cuprates,4
Sm1La0.82Sr0.18Cu1O4,37.0,Sm1 La0.82 Sr0.18 Cu1 O4,"[Element Sm, Element La, Element Sr, Element Cu, Element O]","{'Sm': 1.0, 'La': 0.82, 'Sr': 0.18, 'Cu': 1.0, 'O': 4.0}",Cuprates,5
Sm0.96La0.84Sr0.2Cu1O4,35.0,Sm0.96 La0.84 Sr0.2 Cu1 O4,"[Element Sm, Element La, Element Sr, Element Cu, Element O]","{'Sm': 0.96, 'La': 0.84, 'Sr': 0.2, 'Cu': 1.0, 'O': 4.0}",Cuprates,5
Sm1La0.802Sr0.198Cu1O4,17.2,Sm1 La0.802 Sr0.198 Cu1 O4,"[Element Sm, Element La, Element Sr, Element Cu, Element O]","{'Sm': 1.0, 'La': 0.802, 'Sr': 0.198, 'Cu': 1.0, 'O': 4.0}",Cuprates,5
Sm0.716La1.084Sr0.2Cu1O4,18.1,Sm0.716 La1.084 Sr0.2 Cu1 O4,"[Element Sm, Element La, Element Sr, Element Cu, Element O]","{'Sm': 0.716, 'La': 1.084, 'Sr': 0.2, 'Cu': 1.0, 'O': 4.0}",Cuprates,5
Eu1.007La0.793Sr0.2Cu1O4,29.2,Eu1.007 La0.793 Sr0.2 Cu1 O4,"[Element Eu, Element La, Element Sr, Element Cu, Element O]","{'Eu': 1.007, 'La': 0.793, 'Sr': 0.2, 'Cu': 1.0, 'O': 4.0}",Cuprates,5
Sm0.9La0.9Sr0.2Cu1O4,34.0,Sm0.9 La0.9 Sr0.2 Cu1 O4,"[Element Sm, Element La, Element Sr, Element Cu, Element O]","{'Sm': 0.9, 'La': 0.9, 'Sr': 0.2, 'Cu': 1.0, 'O': 4.0}",Cuprates,5
Bi0.5La1.5Sr1Cu2O6.02,28.0,Bi0.5 La1.5 Sr1 Cu2 O6.02,"[Element Bi, Element La, Element Sr, Element Cu, Element O]","{'Bi': 0.5, 'La': 1.5, 'Sr': 1.0, 'Cu': 2.0, 'O': 6.02}",Cuprates,5
Bi0.3Pb0.2La1.5Sr1Cu2O5.94,24.0,Bi0.3 Pb0.2 La1.5 Sr1 Cu2 O5.94,"[Element Bi, Element Pb, Element La, Element Sr, Element Cu, Element O]","{'Bi': 0.3, 'Pb': 0.2, 'La': 1.5, 'Sr': 1.0, 'Cu': 2.0, 'O': 5.94}",Cuprates,6
Bi0.3Pb0.3La1.2Sr1.2Cu2O5.81,55.0,Bi0.3 Pb0.3 La1.2 Sr1.2 Cu2 O5.81,"[Element Bi, Element Pb, Element La, Element Sr, Element Cu, Element O]","{'Bi': 0.3, 'Pb': 0.3, 'La': 1.2, 'Sr': 1.2, 'Cu': 2.0, 'O': 5.81}",Cuprates,6
Bi0.2Pb0.4La1.2Sr1.3Cu1.9O5.78,75.0,Bi0.2 Pb0.4 La1.2 Sr1.3 Cu1.9 O5.78,"[Element Bi, Element Pb, Element La, Element Sr, Element Cu, Element O]","{'Bi': 0.2, 'Pb': 0.4, 'La': 1.2, 'Sr': 1.3, 'Cu': 1.9, 'O': 5.78}",Cuprates,6
Bi0.2Pb0.3La1.3Sr1.2Cu2O5.78,50.0,Bi0.2 Pb0.3 La1.3 Sr1.2 Cu2 O5.78,"[Element Bi, Element Pb, Element La, Element Sr, Element Cu, Element O]","{'Bi': 0.2, 'Pb': 0.3, 'La': 1.3, 'Sr': 1.2, 'Cu': 2.0, 'O': 5.78}",Cuprates,6
Bi0.1Pb0.4La1.2Sr1.3Cu2O5.78,44.0,Bi0.1 Pb0.4 La1.2 Sr1.3 Cu2 O5.78,"[Element Bi, Element Pb, Element La, Element Sr, Element Cu, Element O]","{'Bi': 0.1, 'Pb': 0.4, 'La': 1.2, 'Sr': 1.3, 'Cu': 2.0, 'O': 5.78}",Cuprates,6