chemical_formula,Tc,composition,elements,stoichiometry,Category,num_elements
La1.81Sr0.19Cu1O4,29.1,La1.81 Sr0.19 Cu1 O4,"[Element La, Element Sr, Element Cu, Element O]","{'La': 1.81, 'Sr': 0.19, 'Cu': 1.0, 'O': 4.0}",Cuprates,4
Sr0.6Ca0.333Cu1O2.15,82.0,Sr0.6 Ca0.333 Cu1 O2.15,"[Element Sr, Element Ca, Element Cu, Element O]","{'Sr': 0.6, 'Ca': 0.333, 'Cu': 1.0, 'O': 2.15}",Cuprates,4
Sr0.6Ca0.333Cu1O2.2,98.0,Sr0.6 Ca0.333 Cu1 O2.2,"[Element Sr, Element Ca, Element Cu, Element O]","{'Sr': 0.6, 'Ca': 0.333, 'Cu': 1.0, 'O': 2.2}",Cuprates,4
Sr0.7Ca0.3Cu1O2,110.0,Sr0.7 Ca0.3 Cu1 O2,"[Element Sr, Element Ca, Element Cu, Element O]","{'Sr': 0.7, 'Ca': 0.3, 'Cu': 1.0, 'O': 2.0}",Cuprates,4
Bi1.8Pb0.2Sr2Ca1Cu2O8,67.0,Bi1.8 Pb0.2 Sr2 Ca1 Cu2 O8,"[Element Bi, Element Pb, Element Sr, Element Ca, Element Cu, Element O]","{'Bi': 1.8, 'Pb': 0.2, 'Sr': 2.0, 'Ca': 1.0, 'Cu': 2.0, 'O': 8.0}",Cuprates,6
Hg1Ba2Cu1O4.02,72.0,Hg1 Ba2 Cu1 O4.02,"[Element Hg, Element Ba, Element Cu, Element O]","{'Hg': 1.0, 'Ba': 2.0, 'Cu': 1.0, 'O': 4.02}",Cuprates,4
Tl2Ba2Cu1O6.056,40.0,Tl2 Ba2 Cu1 O6.056,"[Element Tl, Element Ba, Element Cu, Element O]","{'Tl': 2.0, 'Ba': 2.0, 'Cu': 1.0, 'O': 6.056}",Cuprates,4
Eu1.5Ce0.5Ru1Sr2Cu2O10,32.0,Eu1.5 Ce0.5 Ru1 Sr2 Cu2 O10,"[Element Eu, Element Ce, Element Ru, Element Sr, Element Cu, Element O]","{'Eu': 1.5, 'Ce': 0.5, 'Ru': 1.0, 'Sr': 2.0, 'Cu': 2.0, 'O': 10.0}",Cuprates,6
Sr2.5Ca11.5Cu24O41,5.0,Sr2.5 Ca11.5 Cu24 O41,"[Element Sr, Element Ca, Element Cu, Element O]","{'Sr': 2.5, 'Ca': 11.5, 'Cu': 24.0, 'O': 41.0}",Cuprates,4
La2Cu1O4.093,45.0,La2 Cu1 O4.093,"[Element La, Element Cu, Element O]","{'La': 2.0, 'Cu': 1.0, 'O': 4.093}",Cuprates,3
La2Cu1O4.068,36.0,La2 Cu1 O4.068,"[Element La, Element Cu, Element O]","{'La': 2.0, 'Cu': 1.0, 'O': 4.068}",Cuprates,3
La1.9Sr0.1Cu1O3.997,32.0,La1.9 Sr0.1 Cu1 O3.997,"[Element La, Element Sr, Element Cu, Element O]","{'La': 1.9, 'Sr': 0.1, 'Cu': 1.0, 'O': 3.997}",Cuprates,4
La1.9Sr0.1Cu1O4.018,40.0,La1.9 Sr0.1 Cu1 O4.018,"[Element La, Element Sr, Element Cu, Element O]","{'La': 1.9, 'Sr': 0.1, 'Cu': 1.0, 'O': 4.018}",Cuprates,4
La1.9Sr0.1Cu1O4.023,40.0,La1.9 Sr0.1 Cu1 O4.023,"[Element La, Element Sr, Element Cu, Element O]","{'La': 1.9, 'Sr': 0.1, 'Cu': 1.0, 'O': 4.023}",Cuprates,4
La1.85Sr0.15Cu1O3.998,37.0,La1.85 Sr0.15 Cu1 O3.998,"[Element La, Element Sr, Element Cu, Element O]","{'La': 1.85, 'Sr': 0.15, 'Cu': 1.0, 'O': 3.998}",Cuprates,4
La1.85Sr0.15Cu1O4.022,40.0,La1.85 Sr0.15 Cu1 O4.022,"[Element La, Element Sr, Element Cu, Element O]","{'La': 1.85, 'Sr': 0.15, 'Cu': 1.0, 'O': 4.022}",Cuprates,4
La1.85Sr0.15Cu1O4.03,40.0,La1.85 Sr0.15 Cu1 O4.03,"[Element La, Element Sr, Element Cu, Element O]","{'La': 1.85, 'Sr': 0.15, 'Cu': 1.0, 'O': 4.03}",Cuprates,4
La1.914Sr0.086Cu1O4,22.25,La1.914 Sr0.086 Cu1 O4,"[Element La, Element Sr, Element Cu, Element O]","{'La': 1.914, 'Sr': 0.086, 'Cu': 1.0, 'O': 4.0}",Cuprates,4
La1.934Ba0.066Cu1O4,22.6,La1.934 Ba0.066 Cu1 O4,"[Element La, Element Ba, Element Cu, Element O]","{'La': 1.934, 'Ba': 0.066, 'Cu': 1.0, 'O': 4.0}",Cuprates,4
La1.897Ba0.103Cu1O4,14.5,La1.897 Ba0.103 Cu1 O4,"[Element La, Element Ba, Element Cu, Element O]","{'La': 1.897, 'Ba': 0.103, 'Cu': 1.0, 'O': 4.0}",Cuprates,4
La1.89Ba0.11Cu1O4,5.4,La1.89 Ba0.11 Cu1 O4,"[Element La, Element Ba, Element Cu, Element O]","{'La': 1.89, 'Ba': 0.11, 'Cu': 1.0, 'O': 4.0}",Cuprates,4
La1.82Ba0.18Cu1O4,24.2,La1.82 Ba0.18 Cu1 O4,"[Element La, Element Ba, Element Cu, Element O]","{'La': 1.82, 'Ba': 0.18, 'Cu': 1.0, 'O': 4.0}",Cuprates,4
La1.895Ba0.105Cu1O4,33.1,La1.895 Ba0.105 Cu1 O4,"[Element La, Element Ba, Element Cu, Element O]","{'La': 1.895, 'Ba': 0.105, 'Cu': 1.0, 'O': 4.0}",Cuprates,4
La1.884Ba0.116Cu1O4,21.8,La1.884 Ba0.116 Cu1 O4,"[Element La, Element Ba, Element Cu, Element O]","{'La': 1.884, 'Ba': 0.116, 'Cu': 1.0, 'O': 4.0}",Cuprates,4
La1.881Ba0.119Cu1O4,9.3,La1.881 Ba0.119 Cu1 O4,"[Element La, Element Ba, Element Cu, Element O]","{'La': 1.881, 'Ba': 0.119, 'Cu': 1.0, 'O': 4.0}",Cuprates,4
La1.877Ba0.123Cu1O4,23.6,La1.877 Ba0.123 Cu1 O4,"[Element La, Element Ba, Element Cu, Element O]","{'La': 1.877, 'Ba': 0.123, 'Cu': 1.0, 'O': 4.0}",Cuprates,4
La1.883Sr0.117Cu1O4,31.6,La1.883 Sr0.117 Cu1 O4,"[Element La, Element Sr, Element Cu, Element O]","{'La': 1.883, 'Sr': 0.117, 'Cu': 1.0, 'O': 4.0}",Cuprates,4
La1.868Sr0.132Cu1O4,34.4,La1.868 Sr0.132 Cu1 O4,"[Element La, Element Sr, Element Cu, Element O]","{'La': 1.868, 'Sr': 0.132, 'Cu': 1.0, 'O': 4.0}",Cuprates,4
La1.847Sr0.153Cu1O4,37.6,La1.847 Sr0.153 Cu1 O4,"[Element La, Element Sr, Element Cu, Element O]","{'La': 1.847, 'Sr': 0.153, 'Cu': 1.0, 'O': 4.0}",Cuprates,4
La1.828Sr0.172Cu1O4,37.5,La1.828 Sr0.172 Cu1 O4,"[Element La, Element Sr, Element Cu, Element O]","{'La': 1.828, 'Sr': 0.172, 'Cu': 1.0, 'O': 4.0}",Cuprates,4
Sm0.8Pr0.2Ba2Cu3O6.65,21.0,Sm0.8 Pr0.2 Ba2 Cu3 O6.65,"[Element Sm, Element Pr, Element Ba, Element Cu, Element O]","{'Sm': 0.8, 'Pr': 0.2, 'Ba': 2.0, 'Cu': 3.0, 'O': 6.65}",Cuprates,5
Sm0.8Pr0.2Ba2Cu3O6.7,25.6,Sm0.8 Pr0.2 Ba2 Cu3 O6.7,"[Element Sm, Element Pr, Element Ba, Element Cu, Element O]","{'Sm': 0.8, 'Pr': 0.2, 'Ba': 2.0, 'Cu': 3.0, 'O': 6.7}",Cuprates,5
Sm0.8Pr0.2Ba2Cu3O6.75,23.4,Sm0.8 Pr0.2 Ba2 Cu3 O6.75,"[Element Sm, Element Pr, Element Ba, Element Cu, Element O]","{'Sm': 0.8, 'Pr': 0.2, 'Ba': 2.0, 'Cu': 3.0, 'O': 6.75}",Cuprates,5
Sm0.8Pr0.2Ba2Cu3O6.85,26.0,Sm0.8 Pr0.2 Ba2 Cu3 O6.85,"[Element Sm, Element Pr, Element Ba, Element Cu, Element O]","{'Sm': 0.8, 'Pr': 0.2, 'Ba': 2.0, 'Cu': 3.0, 'O': 6.85}",Cuprates,5
Sm1Ba2Cu3O6.55,12.8,Sm1 Ba2 Cu3 O6.55,"[Element Sm, Element Ba, Element Cu, Element O]","{'Sm': 1.0, 'Ba': 2.0, 'Cu': 3.0, 'O': 6.55}",Cuprates,4
Sm1Ba2Cu3O6.65,32.8,Sm1 Ba2 Cu3 O6.65,"[Element Sm, Element Ba, Element Cu, Element O]","{'Sm': 1.0, 'Ba': 2.0, 'Cu': 3.0, 'O': 6.65}",Cuprates,4
Sm1Ba2Cu3O6.75,38.4,Sm1 Ba2 Cu3 O6.75,"[Element Sm, Element Ba, Element Cu, Element O]","{'Sm': 1.0, 'Ba': 2.0, 'Cu': 3.0, 'O': 6.75}",Cuprates,4
Sm0.9Pr0.1Ba2Cu3O6.55,12.2,Sm0.9 Pr0.1 Ba2 Cu3 O6.55,"[Element Sm, Element Pr, Element Ba, Element Cu, Element O]","{'Sm': 0.9, 'Pr': 0.1, 'Ba': 2.0, 'Cu': 3.0, 'O': 6.55}",Cuprates,5
Sm0.9Pr0.1Ba2Cu3O6.65,30.6,Sm0.9 Pr0.1 Ba2 Cu3 O6.65,"[Element Sm, Element Pr, Element Ba, Element Cu, Element O]","{'Sm': 0.9, 'Pr': 0.1, 'Ba': 2.0, 'Cu': 3.0, 'O': 6.65}",Cuprates,5
Sm0.9Pr0.1Ba2Cu3O6.75,36.3,Sm0.9 Pr0.1 Ba2 Cu3 O6.75,"[Element Sm, Element Pr, Element Ba, Element Cu, Element O]","{'Sm': 0.9, 'Pr': 0.1, 'Ba': 2.0, 'Cu': 3.0, 'O': 6.75}",Cuprates,5
Sm0.9Pr0.1Ba2Cu3O6.85,42.2,Sm0.9 Pr0.1 Ba2 Cu3 O6.85,"[Element Sm, Element Pr, Element Ba, Element Cu, Element O]","{'Sm': 0.9, 'Pr': 0.1, 'Ba': 2.0, 'Cu': 3.0, 'O': 6.85}",Cuprates,5
Sm0.7Pr0.3Ba2Cu3O6.65,10.6,Sm0.7 Pr0.3 Ba2 Cu3 O6.65,"[Element Sm, Element Pr, Element Ba, Element Cu, Element O]","{'Sm': 0.7, 'Pr': 0.3, 'Ba': 2.0, 'Cu': 3.0, 'O': 6.65}",Cuprates,5
Sm0.7Pr0.3Ba2Cu3O6.75,6.6,Sm0.7 Pr0.3 Ba2 Cu3 O6.75,"[Element Sm, Element Pr, Element Ba, Element Cu, Element O]","{'Sm': 0.7, 'Pr': 0.3, 'Ba': 2.0, 'Cu': 3.0, 'O': 6.75}",Cuprates,5
Sm0.7Pr0.3Ba2Cu3O6.8,5.0,Sm0.7 Pr0.3 Ba2 Cu3 O6.8,"[Element Sm, Element Pr, Element Ba, Element Cu, Element O]","{'Sm': 0.7, 'Pr': 0.3, 'Ba': 2.0, 'Cu': 3.0, 'O': 6.8}",Cuprates,5
Sm0.7Pr0.3Ba2Cu3O6.85,4.4,Sm0.7 Pr0.3 Ba2 Cu3 O6.85,"[Element Sm, Element Pr, Element Ba, Element Cu, Element O]","{'Sm': 0.7, 'Pr': 0.3, 'Ba': 2.0, 'Cu': 3.0, 'O': 6.85}",Cuprates,5
La1.885Ba0.115Cu1O4,13.9,La1.885 Ba0.115 Cu1 O4,"[Element La, Element Ba, Element Cu, Element O]","{'La': 1.885, 'Ba': 0.115, 'Cu': 1.0, 'O': 4.0}",Cuprates,4
La1.865Ba0.135Cu1O4,5.98,La1.865 Ba0.135 Cu1 O4,"[Element La, Element Ba, Element Cu, Element O]","{'La': 1.865, 'Ba': 0.135, 'Cu': 1.0, 'O': 4.0}",Cuprates,4
La1.845Ba0.155Cu1O4,26.0,La1.845 Ba0.155 Cu1 O4,"[Element La, Element Ba, Element Cu, Element O]","{'La': 1.845, 'Ba': 0.155, 'Cu': 1.0, 'O': 4.0}",Cuprates,4
La1.83Ba0.17Cu1O4,26.9,La1.83 Ba0.17 Cu1 O4,"[Element La, Element Ba, Element Cu, Element O]","{'La': 1.83, 'Ba': 0.17, 'Cu': 1.0, 'O': 4.0}",Cuprates,4
Tl1Sr2Ca1Cu2O6.8,68.0,Tl1 Sr2 Ca1 Cu2 O6.8,"[Element Tl, Element Sr, Element Ca, Element Cu, Element O]","{'Tl': 1.0, 'Sr': 2.0, 'Ca': 1.0, 'Cu': 2.0, 'O': 6.8}",Cuprates,5
Tl1Sr2Ca1Cu2O6.825,40.0,Tl1 Sr2 Ca1 Cu2 O6.825,"[Element Tl, Element Sr, Element Ca, Element Cu, Element O]","{'Tl': 1.0, 'Sr': 2.0, 'Ca': 1.0, 'Cu': 2.0, 'O': 6.825}",Cuprates,5
Tl1Sr2Ca1Cu2O6.837,31.5,Tl1 Sr2 Ca1 Cu2 O6.837,"[Element Tl, Element Sr, Element Ca, Element Cu, Element O]","{'Tl': 1.0, 'Sr': 2.0, 'Ca': 1.0, 'Cu': 2.0, 'O': 6.837}",Cuprates,5
Tl1Sr2Ca1Cu2O6.85,24.0,Tl1 Sr2 Ca1 Cu2 O6.85,"[Element Tl, Element Sr, Element Ca, Element Cu, Element O]","{'Tl': 1.0, 'Sr': 2.0, 'Ca': 1.0, 'Cu': 2.0, 'O': 6.85}",Cuprates,5
Tl1Sr2Ca1Cu2O6.862,15.2,Tl1 Sr2 Ca1 Cu2 O6.862,"[Element Tl, Element Sr, Element Ca, Element Cu, Element O]","{'Tl': 1.0, 'Sr': 2.0, 'Ca': 1.0, 'Cu': 2.0, 'O': 6.862}",Cuprates,5
Ba0.57K0.43Bi1O3,21.2,Ba0.57 K0.43 Bi1 O3,"[Element Ba, Element K, Element Bi, Element O]","{'Ba': 0.57, 'K': 0.43, 'Bi': 1.0, 'O': 3.0}",Other,4
Ba0.52K0.48Bi1O3,18.7,Ba0.52 K0.48 Bi1 O3,"[Element Ba, Element K, Element Bi, Element O]","{'Ba': 0.52, 'K': 0.48, 'Bi': 1.0, 'O': 3.0}",Other,4
Sr0.4K0.6Bi1O3,12.0,Sr0.4 K0.6 Bi1 O3,"[Element Sr, Element K, Element Bi, Element O]","{'Sr': 0.4, 'K': 0.6, 'Bi': 1.0, 'O': 3.0}",Other,4
Sr0.5Rb0.5Bi1O3,13.0,Sr0.5 Rb0.5 Bi1 O3,"[Element Sr, Element Rb, Element Bi, Element O]","{'Sr': 0.5, 'Rb': 0.5, 'Bi': 1.0, 'O': 3.0}",Other,4
Hg1Ba2Cu1O4.15,97.2,Hg1 Ba2 Cu1 O4.15,"[Element Hg, Element Ba, Element Cu, Element O]","{'Hg': 1.0, 'Ba': 2.0, 'Cu': 1.0, 'O': 4.15}",Cuprates,4
Hg0.95Re0.05Ba2Cu1O4.37,96.0,Hg0.95 Re0.05 Ba2 Cu1 O4.37,"[Element Hg, Element Re, Element Ba, Element Cu, Element O]","{'Hg': 0.95, 'Re': 0.05, 'Ba': 2.0, 'Cu': 1.0, 'O': 4.37}",Cuprates,5
Hg0.9Re0.1Ba2Cu1O4.42,95.0,Hg0.9 Re0.1 Ba2 Cu1 O4.42,"[Element Hg, Element Re, Element Ba, Element Cu, Element O]","{'Hg': 0.9, 'Re': 0.1, 'Ba': 2.0, 'Cu': 1.0, 'O': 4.42}",Cuprates,5
Hg0.85Re0.15Ba2Cu1O4.58,35.0,Hg0.85 Re0.15 Ba2 Cu1 O4.58,"[Element Hg, Element Re, Element Ba, Element Cu, Element O]","{'Hg': 0.85, 'Re': 0.15, 'Ba': 2.0, 'Cu': 1.0, 'O': 4.58}",Cuprates,5
Hg1Ba2Cu1O4.162,97.4,Hg1 Ba2 Cu1 O4.162,"[Element Hg, Element Ba, Element Cu, Element O]","{'Hg': 1.0, 'Ba': 2.0, 'Cu': 1.0, 'O': 4.162}",Cuprates,4
Hg0.95Re0.05Ba2Cu1O4.372,97.0,Hg0.95 Re0.05 Ba2 Cu1 O4.372,"[Element Hg, Element Re, Element Ba, Element Cu, Element O]","{'Hg': 0.95, 'Re': 0.05, 'Ba': 2.0, 'Cu': 1.0, 'O': 4.372}",Cuprates,5
Hg0.9Re0.1Ba2Cu1O4.425,96.8,Hg0.9 Re0.1 Ba2 Cu1 O4.425,"[Element Hg, Element Re, Element Ba, Element Cu, Element O]","{'Hg': 0.9, 'Re': 0.1, 'Ba': 2.0, 'Cu': 1.0, 'O': 4.425}",Cuprates,5
Hg0.85Re0.15Ba2Cu1O4.525,96.3,Hg0.85 Re0.15 Ba2 Cu1 O4.525,"[Element Hg, Element Re, Element Ba, Element Cu, Element O]","{'Hg': 0.85, 'Re': 0.15, 'Ba': 2.0, 'Cu': 1.0, 'O': 4.525}",Cuprates,5
Bi2Sr2Ca1Cu1.988Ni0.012O8,92.55,Bi2 Sr2 Ca1 Cu1.988 Ni0.012 O8,"[Element Bi, Element Sr, Element Ca, Element Cu, Element Ni, Element O]","{'Bi': 2.0, 'Sr': 2.0, 'Ca': 1.0, 'Cu': 1.988, 'Ni': 0.012, 'O': 8.0}",Cuprates,6
Sm1La0.85Sr0.15Cu1O3.98,30.0,Sm1 La0.85 Sr0.15 Cu1 O3.98,"[Element Sm, Element La, Element Sr, Element Cu, Element O]","{'Sm': 1.0, 'La': 0.85, 'Sr': 0.15, 'Cu': 1.0, 'O': 3.98}",Cuprates,5
La2Cu1O4.0625,17.0,La2 Cu1 O4.0625,"[Element La, Element Cu, Element O]","{'La': 2.0, 'Cu': 1.0, 'O': 4.0625}",Cuprates,3
Pb2Sr2Eu0.95Ca0.05Cu3O8.1,59.0,Pb2 Sr2 Eu0.95 Ca0.05 Cu3 O8.1,"[Element Pb, Element Sr, Element Eu, Element Ca, Element Cu, Element O]","{'Pb': 2.0, 'Sr': 2.0, 'Eu': 0.95, 'Ca': 0.05, 'Cu': 3.0, 'O': 8.1}",Cuprates,6
Pb2Sr2Eu0.9Ca0.1Cu3O8.1,69.0,Pb2 Sr2 Eu0.9 Ca0.1 Cu3 O8.1,"[Element Pb, Element Sr, Element Eu, Element Ca, Element Cu, Element O]","{'Pb': 2.0, 'Sr': 2.0, 'Eu': 0.9, 'Ca': 0.1, 'Cu': 3.0, 'O': 8.1}",Cuprates,6
Pb2Sr2Eu0.85Ca0.15Cu3O8.1,71.0,Pb2 Sr2 Eu0.85 Ca0.15 Cu3 O8.1,"[Element Pb, Element Sr, Element Eu, Element Ca, Element Cu, Element O]","{'Pb': 2.0, 'Sr': 2.0, 'Eu': 0.85, 'Ca': 0.15, 'Cu': 3.0, 'O': 8.1}",Cuprates,6
Pb2Sr2Eu0.8Ca0.2Cu3O8.1,73.0,Pb2 Sr2 Eu0.8 Ca0.2 Cu3 O8.1,"[Element Pb, Element Sr, Element Eu, Element Ca, Element Cu, Element O]","{'Pb': 2.0, 'Sr': 2.0, 'Eu': 0.8, 'Ca': 0.2, 'Cu': 3.0, 'O': 8.1}",Cuprates,6
Pb2Sr2Eu0.75Ca0.25Cu3O8.1,74.0,Pb2 Sr2 Eu0.75 Ca0.25 Cu3 O8.1,"[Element Pb, Element Sr, Element Eu, Element Ca, Element Cu, Element O]","{'Pb': 2.0, 'Sr': 2.0, 'Eu': 0.75, 'Ca': 0.25, 'Cu': 3.0, 'O': 8.1}",Cuprates,6
Pb2Sr2Eu0.7Ca0.3Cu3O8.1,73.0,Pb2 Sr2 Eu0.7 Ca0.3 Cu3 O8.1,"[Element Pb, Element Sr, Element Eu, Element Ca, Element Cu, Element O]","{'Pb': 2.0, 'Sr': 2.0, 'Eu': 0.7, 'Ca': 0.3, 'Cu': 3.0, 'O': 8.1}",Cuprates,6
Pb2Sr2Eu0.65Ca0.35Cu3O8.1,71.0,Pb2 Sr2 Eu0.65 Ca0.35 Cu3 O8.1,"[Element Pb, Element Sr, Element Eu, Element Ca, Element Cu, Element O]","{'Pb': 2.0, 'Sr': 2.0, 'Eu': 0.65, 'Ca': 0.35, 'Cu': 3.0, 'O': 8.1}",Cuprates,6
Ru1Sr2Eu1Cu2O8,35.0,Ru1 Sr2 Eu1 Cu2 O8,"[Element Ru, Element Sr, Element Eu, Element Cu, Element O]","{'Ru': 1.0, 'Sr': 2.0, 'Eu': 1.0, 'Cu': 2.0, 'O': 8.0}",Cuprates,5
Tl1Sr1.75Th0.25Ca1Cu2O7,51.6,Tl1 Sr1.75 Th0.25 Ca1 Cu2 O7,"[Element Tl, Element Sr, Element Th, Element Ca, Element Cu, Element O]","{'Tl': 1.0, 'Sr': 1.75, 'Th': 0.25, 'Ca': 1.0, 'Cu': 2.0, 'O': 7.0}",Cuprates,6
Tl1Sr1.65Th0.35Ca1Cu2O7,55.3,Tl1 Sr1.65 Th0.35 Ca1 Cu2 O7,"[Element Tl, Element Sr, Element Th, Element Ca, Element Cu, Element O]","{'Tl': 1.0, 'Sr': 1.65, 'Th': 0.35, 'Ca': 1.0, 'Cu': 2.0, 'O': 7.0}",Cuprates,6
Tl1Sr2Ca0.75Th0.25Cu2O7,52.5,Tl1 Sr2 Ca0.75 Th0.25 Cu2 O7,"[Element Tl, Element Sr, Element Ca, Element Th, Element Cu, Element O]","{'Tl': 1.0, 'Sr': 2.0, 'Ca': 0.75, 'Th': 0.25, 'Cu': 2.0, 'O': 7.0}",Cuprates,6
Tl1Sr2Ca0.65Th0.35Cu2O7,55.3,Tl1 Sr2 Ca0.65 Th0.35 Cu2 O7,"[Element Tl, Element Sr, Element Ca, Element Th, Element Cu, Element O]","{'Tl': 1.0, 'Sr': 2.0, 'Ca': 0.65, 'Th': 0.35, 'Cu': 2.0, 'O': 7.0}",Cuprates,6
Tl1Sr1.5Tb0.5Ca1Cu2O7,80.0,Tl1 Sr1.5 Tb0.5 Ca1 Cu2 O7,"[Element Tl, Element Sr, Element Tb, Element Ca, Element Cu, Element O]","{'Tl': 1.0, 'Sr': 1.5, 'Tb': 0.5, 'Ca': 1.0, 'Cu': 2.0, 'O': 7.0}",Cuprates,6
Tl1Sr1.5Ho0.5Ca1Cu2O7,80.0,Tl1 Sr1.5 Ho0.5 Ca1 Cu2 O7,"[Element Tl, Element Sr, Element Ho, Element Ca, Element Cu, Element O]","{'Tl': 1.0, 'Sr': 1.5, 'Ho': 0.5, 'Ca': 1.0, 'Cu': 2.0, 'O': 7.0}",Cuprates,6
Tl1Sr1.5Er0.5Ca1Cu2O7,78.0,Tl1 Sr1.5 Er0.5 Ca1 Cu2 O7,"[Element Tl, Element Sr, Element Er, Element Ca, Element Cu, Element O]","{'Tl': 1.0, 'Sr': 1.5, 'Er': 0.5, 'Ca': 1.0, 'Cu': 2.0, 'O': 7.0}",Cuprates,6
Tl1Sr1.5Tm0.5Ca1Cu2O7,84.0,Tl1 Sr1.5 Tm0.5 Ca1 Cu2 O7,"[Element Tl, Element Sr, Element Tm, Element Ca, Element Cu, Element O]","{'Tl': 1.0, 'Sr': 1.5, 'Tm': 0.5, 'Ca': 1.0, 'Cu': 2.0, 'O': 7.0}",Cuprates,6
Tl1Sr1.5La0.5Ca1Cu2O7,90.0,Tl1 Sr1.5 La0.5 Ca1 Cu2 O7,"[Element Tl, Element Sr, Element La, Element Ca, Element Cu, Element O]","{'Tl': 1.0, 'Sr': 1.5, 'La': 0.5, 'Ca': 1.0, 'Cu': 2.0, 'O': 7.0}",Cuprates,6
Tl1Sr1.5Ce0.5Ca1Cu2O7,5.0,Tl1 Sr1.5 Ce0.5 Ca1 Cu2 O7,"[Element Tl, Element Sr, Element Ce, Element Ca, Element Cu, Element O]","{'Tl': 1.0, 'Sr': 1.5, 'Ce': 0.5, 'Ca': 1.0, 'Cu': 2.0, 'O': 7.0}",Cuprates,6
Tl1Sr1.5Pr0.5Ca1Cu2O7,88.0,Tl1 Sr1.5 Pr0.5 Ca1 Cu2 O7,"[Element Tl, Element Sr, Element Pr, Element Ca, Element Cu, Element O]","{'Tl': 1.0, 'Sr': 1.5, 'Pr': 0.5, 'Ca': 1.0, 'Cu': 2.0, 'O': 7.0}",Cuprates,6
Tl1Sr1.5Sm0.5Ca1Cu2O7,86.0,Tl1 Sr1.5 Sm0.5 Ca1 Cu2 O7,"[Element Tl, Element Sr, Element Sm, Element Ca, Element Cu, Element O]","{'Tl': 1.0, 'Sr': 1.5, 'Sm': 0.5, 'Ca': 1.0, 'Cu': 2.0, 'O': 7.0}",Cuprates,6
Tl1Sr1.5Eu0.5Ca1Cu2O7,88.0,Tl1 Sr1.5 Eu0.5 Ca1 Cu2 O7,"[Element Tl, Element Sr, Element Eu, Element Ca, Element Cu, Element O]","{'Tl': 1.0, 'Sr': 1.5, 'Eu': 0.5, 'Ca': 1.0, 'Cu': 2.0, 'O': 7.0}",Cuprates,6
Tl1Sr1.5Lu0.5Ca1Cu2O7,82.0,Tl1 Sr1.5 Lu0.5 Ca1 Cu2 O7,"[Element Tl, Element Sr, Element Lu, Element Ca, Element Cu, Element O]","{'Tl': 1.0, 'Sr': 1.5, 'Lu': 0.5, 'Ca': 1.0, 'Cu': 2.0, 'O': 7.0}",Cuprates,6
Ru0.92Ce0.58Sr1.7Eu1.8Cu2O10,26.0,Ru0.92 Ce0.58 Sr1.7 Eu1.8 Cu2 O10,"[Element Ru, Element Ce, Element Sr, Element Eu, Element Cu, Element O]","{'Ru': 0.92, 'Ce': 0.58, 'Sr': 1.7, 'Eu': 1.8, 'Cu': 2.0, 'O': 10.0}",Cuprates,6
Eu0.9Pr0.1Ba2Cu3O7,68.3,Eu0.9 Pr0.1 Ba2 Cu3 O7,"[Element Eu, Element Pr, Element Ba, Element Cu, Element O]","{'Eu': 0.9, 'Pr': 0.1, 'Ba': 2.0, 'Cu': 3.0, 'O': 7.0}",Cuprates,5
Eu0.8Pr0.2Ba2Cu3O7,63.0,Eu0.8 Pr0.2 Ba2 Cu3 O7,"[Element Eu, Element Pr, Element Ba, Element Cu, Element O]","{'Eu': 0.8, 'Pr': 0.2, 'Ba': 2.0, 'Cu': 3.0, 'O': 7.0}",Cuprates,5
Eu0.7Pr0.3Ba2Cu3O7,53.8,Eu0.7 Pr0.3 Ba2 Cu3 O7,"[Element Eu, Element Pr, Element Ba, Element Cu, Element O]","{'Eu': 0.7, 'Pr': 0.3, 'Ba': 2.0, 'Cu': 3.0, 'O': 7.0}",Cuprates,5
Eu0.6Pr0.4Ba2Cu3O7,37.8,Eu0.6 Pr0.4 Ba2 Cu3 O7,"[Element Eu, Element Pr, Element Ba, Element Cu, Element O]","{'Eu': 0.6, 'Pr': 0.4, 'Ba': 2.0, 'Cu': 3.0, 'O': 7.0}",Cuprates,5
Eu0.5Pr0.5Ba2Cu3O7,26.7,Eu0.5 Pr0.5 Ba2 Cu3 O7,"[Element Eu, Element Pr, Element Ba, Element Cu, Element O]","{'Eu': 0.5, 'Pr': 0.5, 'Ba': 2.0, 'Cu': 3.0, 'O': 7.0}",Cuprates,5
La1.9Er0.1Ba2Ca0.2Cu4.2O9.85,18.0,La1.9 Er0.1 Ba2 Ca0.2 Cu4.2 O9.85,"[Element La, Element Er, Element Ba, Element Ca, Element Cu, Element O]","{'La': 1.9, 'Er': 0.1, 'Ba': 2.0, 'Ca': 0.2, 'Cu': 4.2, 'O': 9.85}",Cuprates,6
La1.8Er0.2Ba2Ca0.4Cu4.4O10.371,40.0,La1.8 Er0.2 Ba2 Ca0.4 Cu4.4 O10.371,"[Element La, Element Er, Element Ba, Element Ca, Element Cu, Element O]","{'La': 1.8, 'Er': 0.2, 'Ba': 2.0, 'Ca': 0.4, 'Cu': 4.4, 'O': 10.371}",Cuprates,6
La1.75Er0.25Ba2Ca0.5Cu4.5O10.662,66.0,La1.75 Er0.25 Ba2 Ca0.5 Cu4.5 O10.662,"[Element La, Element Er, Element Ba, Element Ca, Element Cu, Element O]","{'La': 1.75, 'Er': 0.25, 'Ba': 2.0, 'Ca': 0.5, 'Cu': 4.5, 'O': 10.662}",Cuprates,6
La1.7Er0.3Ba2Ca0.6Cu4.6O10.92,70.0,La1.7 Er0.3 Ba2 Ca0.6 Cu4.6 O10.92,"[Element La, Element Er, Element Ba, Element Ca, Element Cu, Element O]","{'La': 1.7, 'Er': 0.3, 'Ba': 2.0, 'Ca': 0.6, 'Cu': 4.6, 'O': 10.92}",Cuprates,6
La1.65Er0.35Ba2Ca0.7Cu4.7O11.166,71.0,La1.65 Er0.35 Ba2 Ca0.7 Cu4.7 O11.166,"[Element La, Element Er, Element Ba, Element Ca, Element Cu, Element O]","{'La': 1.65, 'Er': 0.35, 'Ba': 2.0, 'Ca': 0.7, 'Cu': 4.7, 'O': 11.166}",Cuprates,6
La1.6Er0.4Ba2Ca0.8Cu4.8O11.424,76.0,La1.6 Er0.4 Ba2 Ca0.8 Cu4.8 O11.424,"[Element La, Element Er, Element Ba, Element Ca, Element Cu, Element O]","{'La': 1.6, 'Er': 0.4, 'Ba': 2.0, 'Ca': 0.8, 'Cu': 4.8, 'O': 11.424}",Cuprates,6
La1.55Er0.45Ba2Ca0.9Cu4.9O11.664,76.0,La1.55 Er0.45 Ba2 Ca0.9 Cu4.9 O11.664,"[Element La, Element Er, Element Ba, Element Ca, Element Cu, Element O]","{'La': 1.55, 'Er': 0.45, 'Ba': 2.0, 'Ca': 0.9, 'Cu': 4.9, 'O': 11.664}",Cuprates,6
La1.5Er0.5Ba2Ca1Cu5O11.907,78.0,La1.5 Er0.5 Ba2 Ca1 Cu5 O11.907,"[Element La, Element Er, Element Ba, Element Ca, Element Cu, Element O]","{'La': 1.5, 'Er': 0.5, 'Ba': 2.0, 'Ca': 1.0, 'Cu': 5.0, 'O': 11.907}",Cuprates,6
La1Er1Ba2Ca2Cu6O14.122,79.0,La1 Er1 Ba2 Ca2 Cu6 O14.122,"[Element La, Element Er, Element Ba, Element Ca, Element Cu, Element O]","{'La': 1.0, 'Er': 1.0, 'Ba': 2.0, 'Ca': 2.0, 'Cu': 6.0, 'O': 14.122}",Cuprates,6
Sm1La0.8Sr0.2Cu1O4,24.0,Sm1 La0.8 Sr0.2 Cu1 O4,"[Element Sm, Element La, Element Sr, Element Cu, Element O]","{'Sm': 1.0, 'La': 0.8, 'Sr': 0.2, 'Cu': 1.0, 'O': 4.0}",Cuprates,5
La1Ba2Cu3O7,89.6,La1 Ba2 Cu3 O7,"[Element La, Element Ba, Element Cu, Element O]","{'La': 1.0, 'Ba': 2.0, 'Cu': 3.0, 'O': 7.0}",Cuprates,4
La0.9Pr0.1Ba2Cu3O7,68.3,La0.9 Pr0.1 Ba2 Cu3 O7,"[Element La, Element Pr, Element Ba, Element Cu, Element O]","{'La': 0.9, 'Pr': 0.1, 'Ba': 2.0, 'Cu': 3.0, 'O': 7.0}",Cuprates,5
La0.8Pr0.2Ba2Cu3O7,59.8,La0.8 Pr0.2 Ba2 Cu3 O7,"[Element La, Element Pr, Element Ba, Element Cu, Element O]","{'La': 0.8, 'Pr': 0.2, 'Ba': 2.0, 'Cu': 3.0, 'O': 7.0}",Cuprates,5