chemical_formula,Tc,composition,elements,stoichiometry,Category,num_elements
Ge1H0.005V3,5.8,Ge1 H0.005 V3,"[Element Ge, Element H, Element V]","{'Ge': 1.0, 'H': 0.005, 'V': 3.0}",Hydrides,3
Ge3Mo5,3.3,Ge3 Mo5,"[Element Ge, Element Mo]","{'Ge': 3.0, 'Mo': 5.0}",Other,2
Ge2Hf1,2.2,Ge2 Hf1,"[Element Ge, Element Hf]","{'Ge': 2.0, 'Hf': 1.0}",Other,2
Ga6Tb1,5.0,Ga6 Tb1,"[Element Ga, Element Tb]","{'Ga': 6.0, 'Tb': 1.0}",Other,2
Ga26.5V73.5,13.6,Ga26.5 V73.5,"[Element Ga, Element V]","{'Ga': 26.5, 'V': 73.5}",Other,2
Ga25V75,15.3,Ga25 V75,"[Element Ga, Element V]","{'Ga': 25.0, 'V': 75.0}",Other,2
Ga20.5V79.5,9.7,Ga20.5 V79.5,"[Element Ga, Element V]","{'Ga': 20.5, 'V': 79.5}",Other,2
Ga22.2V77.8,12.3,Ga22.2 V77.8,"[Element Ga, Element V]","{'Ga': 22.2, 'V': 77.8}",Other,2
Ga23.6V76.4,14.6,Ga23.6 V76.4,"[Element Ga, Element V]","{'Ga': 23.6, 'V': 76.4}",Other,2
Ga24.8V75.2,15.1,Ga24.8 V75.2,"[Element Ga, Element V]","{'Ga': 24.8, 'V': 75.2}",Other,2
Ga25.3V74.7,14.9,Ga25.3 V74.7,"[Element Ga, Element V]","{'Ga': 25.3, 'V': 74.7}",Other,2
Ga28.1V71.9,12.2,Ga28.1 V71.9,"[Element Ga, Element V]","{'Ga': 28.1, 'V': 71.9}",Other,2
Ga29.6V70.4,12.1,Ga29.6 V70.4,"[Element Ga, Element V]","{'Ga': 29.6, 'V': 70.4}",Other,2
Ga41Mo8,9.7,Ga41 Mo8,"[Element Ga, Element Mo]","{'Ga': 41.0, 'Mo': 8.0}",Other,2
Au1Ga40Mo8,9.4,Au1 Ga40 Mo8,"[Element Au, Element Ga, Element Mo]","{'Au': 1.0, 'Ga': 40.0, 'Mo': 8.0}",Other,3
Ga0.21V0.79,10.0,Ga0.21 V0.79,"[Element Ga, Element V]","{'Ga': 0.21, 'V': 0.79}",Other,2
Ga0.31V0.69,15.4,Ga0.31 V0.69,"[Element Ga, Element V]","{'Ga': 0.31, 'V': 0.69}",Other,2
Ga0.2V0.8,12.5,Ga0.2 V0.8,"[Element Ga, Element V]","{'Ga': 0.2, 'V': 0.8}",Other,2
Ga0.3V0.7,14.1,Ga0.3 V0.7,"[Element Ga, Element V]","{'Ga': 0.3, 'V': 0.7}",Other,2
N1.07Nb1,14.4,N1.07 Nb1,"[Element N, Element Nb]","{'N': 1.07, 'Nb': 1.0}",Other,2
N0.78Nb1,10.5,N0.78 Nb1,"[Element N, Element Nb]","{'N': 0.78, 'Nb': 1.0}",Other,2
N0.89Nb1,12.1,N0.89 Nb1,"[Element N, Element Nb]","{'N': 0.89, 'Nb': 1.0}",Other,2
N0.93Nb1,13.3,N0.93 Nb1,"[Element N, Element Nb]","{'N': 0.93, 'Nb': 1.0}",Other,2
C0.28N0.76Nb1,16.4,C0.28 N0.76 Nb1,"[Element C, Element N, Element Nb]","{'C': 0.28, 'N': 0.76, 'Nb': 1.0}",Other,3
Nb3Os2,1.78,Nb3 Os2,"[Element Nb, Element Os]","{'Nb': 3.0, 'Os': 2.0}",Other,2
Ga4Mn0.006Mo0.994,7.14,Ga4 Mn0.006 Mo0.994,"[Element Ga, Element Mn, Element Mo]","{'Ga': 4.0, 'Mn': 0.006, 'Mo': 0.994}",Other,3
Ga2La1,1.15,Ga2 La1,"[Element Ga, Element La]","{'Ga': 2.0, 'La': 1.0}",Other,2
Eu0.0034La0.9966,3.95,Eu0.0034 La0.9966,"[Element Eu, Element La]","{'Eu': 0.0034, 'La': 0.9966}",Other,2
Eu0.011La0.989,2.16,Eu0.011 La0.989,"[Element Eu, Element La]","{'Eu': 0.011, 'La': 0.989}",Other,2
Lu3Rh4Ge13,2.3,Lu3 Rh4 Ge13,"[Element Lu, Element Rh, Element Ge]","{'Lu': 3.0, 'Rh': 4.0, 'Ge': 13.0}",Other,3
Ca3Rh4Ge13,2.1,Ca3 Rh4 Ge13,"[Element Ca, Element Rh, Element Ge]","{'Ca': 3.0, 'Rh': 4.0, 'Ge': 13.0}",Other,3
Ca3Ir4Ge13,1.7,Ca3 Ir4 Ge13,"[Element Ca, Element Ir, Element Ge]","{'Ca': 3.0, 'Ir': 4.0, 'Ge': 13.0}",Other,3
La3Ru4Ge13,3.9,La3 Ru4 Ge13,"[Element La, Element Ru, Element Ge]","{'La': 3.0, 'Ru': 4.0, 'Ge': 13.0}",Other,3
Th3Os4Ge13,5.6,Th3 Os4 Ge13,"[Element Th, Element Os, Element Ge]","{'Th': 3.0, 'Os': 4.0, 'Ge': 13.0}",Other,3
Ca3Co4Ge13,5.9,Ca3 Co4 Ge13,"[Element Ca, Element Co, Element Ge]","{'Ca': 3.0, 'Co': 4.0, 'Ge': 13.0}",Other,3
La3Co4Ge13,2.8,La3 Co4 Ge13,"[Element La, Element Co, Element Ge]","{'La': 3.0, 'Co': 4.0, 'Ge': 13.0}",Other,3
Sr3Rh4Sn13,4.3,Sr3 Rh4 Sn13,"[Element Sr, Element Rh, Element Sn]","{'Sr': 3.0, 'Rh': 4.0, 'Sn': 13.0}",Other,3
Th3Rh4Sn13,1.9,Th3 Rh4 Sn13,"[Element Th, Element Rh, Element Sn]","{'Th': 3.0, 'Rh': 4.0, 'Sn': 13.0}",Other,3
Ca3Ir4Sn13,7.1,Ca3 Ir4 Sn13,"[Element Ca, Element Ir, Element Sn]","{'Ca': 3.0, 'Ir': 4.0, 'Sn': 13.0}",Other,3
Sr3Ir4Sn13,5.1,Sr3 Ir4 Sn13,"[Element Sr, Element Ir, Element Sn]","{'Sr': 3.0, 'Ir': 4.0, 'Sn': 13.0}",Other,3
La3Ir4Sn13,2.6,La3 Ir4 Sn13,"[Element La, Element Ir, Element Sn]","{'La': 3.0, 'Ir': 4.0, 'Sn': 13.0}",Other,3
Th3Ir4Sn13,2.6,Th3 Ir4 Sn13,"[Element Th, Element Ir, Element Sn]","{'Th': 3.0, 'Ir': 4.0, 'Sn': 13.0}",Other,3
La3Rh4Pb13,2.2,La3 Rh4 Pb13,"[Element La, Element Rh, Element Pb]","{'La': 3.0, 'Rh': 4.0, 'Pb': 13.0}",Other,3
Sc4Rh6Ge19,1.9,Sc4 Rh6 Ge19,"[Element Sc, Element Rh, Element Ge]","{'Sc': 4.0, 'Rh': 6.0, 'Ge': 19.0}",Other,3
Sc4Ir6Ge19,1.4,Sc4 Ir6 Ge19,"[Element Sc, Element Ir, Element Ge]","{'Sc': 4.0, 'Ir': 6.0, 'Ge': 19.0}",Other,3
Sc4Os6Sn19,1.5,Sc4 Os6 Sn19,"[Element Sc, Element Os, Element Sn]","{'Sc': 4.0, 'Os': 6.0, 'Sn': 19.0}",Other,3
Tb4Os6Sn19,1.4,Tb4 Os6 Sn19,"[Element Tb, Element Os, Element Sn]","{'Tb': 4.0, 'Os': 6.0, 'Sn': 19.0}",Other,3
Ho4Os6Sn19,1.4,Ho4 Os6 Sn19,"[Element Ho, Element Os, Element Sn]","{'Ho': 4.0, 'Os': 6.0, 'Sn': 19.0}",Other,3
Er4Os6Sn19,1.25,Er4 Os6 Sn19,"[Element Er, Element Os, Element Sn]","{'Er': 4.0, 'Os': 6.0, 'Sn': 19.0}",Other,3
Tm4Os6Sn19,1.1,Tm4 Os6 Sn19,"[Element Tm, Element Os, Element Sn]","{'Tm': 4.0, 'Os': 6.0, 'Sn': 19.0}",Other,3
Lu4Os6Sn19,1.8,Lu4 Os6 Sn19,"[Element Lu, Element Os, Element Sn]","{'Lu': 4.0, 'Os': 6.0, 'Sn': 19.0}",Other,3
Ta1Ge2,2.3,Ta1 Ge2,"[Element Ta, Element Ge]","{'Ta': 1.0, 'Ge': 2.0}",Other,2
Re1Ge2,2.7,Re1 Ge2,"[Element Re, Element Ge]","{'Re': 1.0, 'Ge': 2.0}",Other,2
Ag0.7Al0.3,0.11,Ag0.7 Al0.3,"[Element Ag, Element Al]","{'Ag': 0.7, 'Al': 0.3}",Other,2
Ag0.667Al0.333,0.126,Ag0.667 Al0.333,"[Element Ag, Element Al]","{'Ag': 0.667, 'Al': 0.333}",Other,2
Ag0.65Al0.35,0.1,Ag0.65 Al0.35,"[Element Ag, Element Al]","{'Ag': 0.65, 'Al': 0.35}",Other,2
Ag0.625Al0.375,0.106,Ag0.625 Al0.375,"[Element Ag, Element Al]","{'Ag': 0.625, 'Al': 0.375}",Other,2
Ag0.6Al0.4,0.088,Ag0.6 Al0.4,"[Element Ag, Element Al]","{'Ag': 0.6, 'Al': 0.4}",Other,2
Ag0.885Sb0.115,0.019,Ag0.885 Sb0.115,"[Element Ag, Element Sb]","{'Ag': 0.885, 'Sb': 0.115}",Other,2
Ag0.865Sb0.135,0.028,Ag0.865 Sb0.135,"[Element Ag, Element Sb]","{'Ag': 0.865, 'Sb': 0.135}",Other,2
Ag0.845Sb0.155,0.037,Ag0.845 Sb0.155,"[Element Ag, Element Sb]","{'Ag': 0.845, 'Sb': 0.155}",Other,2
Ag0.845Sn0.155,0.025,Ag0.845 Sn0.155,"[Element Ag, Element Sn]","{'Ag': 0.845, 'Sn': 0.155}",Other,2
Ag0.835Sn0.165,0.047,Ag0.835 Sn0.165,"[Element Ag, Element Sn]","{'Ag': 0.835, 'Sn': 0.165}",Other,2
Ag0.825Sn0.175,0.055,Ag0.825 Sn0.175,"[Element Ag, Element Sn]","{'Ag': 0.825, 'Sn': 0.175}",Other,2
Ag0.82Sn0.18,0.066,Ag0.82 Sn0.18,"[Element Ag, Element Sn]","{'Ag': 0.82, 'Sn': 0.18}",Other,2
Ag0.815Sn0.185,0.06,Ag0.815 Sn0.185,"[Element Ag, Element Sn]","{'Ag': 0.815, 'Sn': 0.185}",Other,2
Ag0.795Sn0.205,0.09,Ag0.795 Sn0.205,"[Element Ag, Element Sn]","{'Ag': 0.795, 'Sn': 0.205}",Other,2
Ag0.775Sn0.225,0.09,Ag0.775 Sn0.225,"[Element Ag, Element Sn]","{'Ag': 0.775, 'Sn': 0.225}",Other,2
Cu0.86Ge0.14,0.025,Cu0.86 Ge0.14,"[Element Cu, Element Ge]","{'Cu': 0.86, 'Ge': 0.14}",Other,2
Cu0.85Ge0.15,0.084,Cu0.85 Ge0.15,"[Element Cu, Element Ge]","{'Cu': 0.85, 'Ge': 0.15}",Other,2
Cu0.84Ge0.16,0.117,Cu0.84 Ge0.16,"[Element Cu, Element Ge]","{'Cu': 0.84, 'Ge': 0.16}",Other,2
Cu0.83Ge0.17,0.072,Cu0.83 Ge0.17,"[Element Cu, Element Ge]","{'Cu': 0.83, 'Ge': 0.17}",Other,2
Cu0.825Ge0.175,0.145,Cu0.825 Ge0.175,"[Element Cu, Element Ge]","{'Cu': 0.825, 'Ge': 0.175}",Other,2
Cu0.82Ge0.18,0.13,Cu0.82 Ge0.18,"[Element Cu, Element Ge]","{'Cu': 0.82, 'Ge': 0.18}",Other,2
Cu0.815Ge0.185,0.175,Cu0.815 Ge0.185,"[Element Cu, Element Ge]","{'Cu': 0.815, 'Ge': 0.185}",Other,2
Cu0.81Ge0.19,0.24,Cu0.81 Ge0.19,"[Element Cu, Element Ge]","{'Cu': 0.81, 'Ge': 0.19}",Other,2
Au0.885Sn0.115,0.21,Au0.885 Sn0.115,"[Element Au, Element Sn]","{'Au': 0.885, 'Sn': 0.115}",Other,2
Au0.875Sn0.125,0.33,Au0.875 Sn0.125,"[Element Au, Element Sn]","{'Au': 0.875, 'Sn': 0.125}",Other,2
Au0.865Sn0.135,0.435,Au0.865 Sn0.135,"[Element Au, Element Sn]","{'Au': 0.865, 'Sn': 0.135}",Other,2
Au0.855Sn0.145,0.43,Au0.855 Sn0.145,"[Element Au, Element Sn]","{'Au': 0.855, 'Sn': 0.145}",Other,2
Au0.845Sn0.155,0.53,Au0.845 Sn0.155,"[Element Au, Element Sn]","{'Au': 0.845, 'Sn': 0.155}",Other,2
Au0.835Sn0.165,0.59,Au0.835 Sn0.165,"[Element Au, Element Sn]","{'Au': 0.835, 'Sn': 0.165}",Other,2
Au0.84In0.16,0.035,Au0.84 In0.16,"[Element Au, Element In]","{'Au': 0.84, 'In': 0.16}",Other,2
Au0.8In0.2,0.28,Au0.8 In0.2,"[Element Au, Element In]","{'Au': 0.8, 'In': 0.2}",Other,2
Sn0.965Te1,0.168,Sn0.965 Te1,"[Element Sn, Element Te]","{'Sn': 0.965, 'Te': 1.0}",Other,2
Sn0.975Te1,0.165,Sn0.975 Te1,"[Element Sn, Element Te]","{'Sn': 0.975, 'Te': 1.0}",Other,2
Sn0.966Te1,0.167,Sn0.966 Te1,"[Element Sn, Element Te]","{'Sn': 0.966, 'Te': 1.0}",Other,2
Sn0.976Te1,0.125,Sn0.976 Te1,"[Element Sn, Element Te]","{'Sn': 0.976, 'Te': 1.0}",Other,2
Sn0.98Te1,0.092,Sn0.98 Te1,"[Element Sn, Element Te]","{'Sn': 0.98, 'Te': 1.0}",Other,2
Sn0.985Te1,0.0485,Sn0.985 Te1,"[Element Sn, Element Te]","{'Sn': 0.985, 'Te': 1.0}",Other,2
Sn0.99Te1,0.0285,Sn0.99 Te1,"[Element Sn, Element Te]","{'Sn': 0.99, 'Te': 1.0}",Other,2
Sn0.995Te1,0.0138,Sn0.995 Te1,"[Element Sn, Element Te]","{'Sn': 0.995, 'Te': 1.0}",Other,2
Sn0.97As0.005Te0.995,0.108,Sn0.97 As0.005 Te0.995,"[Element Sn, Element As, Element Te]","{'Sn': 0.97, 'As': 0.005, 'Te': 0.995}",Other,3
Sn0.97As0.01Te0.99,0.073,Sn0.97 As0.01 Te0.99,"[Element Sn, Element As, Element Te]","{'Sn': 0.97, 'As': 0.01, 'Te': 0.99}",Other,3
Sn0.97As0.015Te0.985,0.051,Sn0.97 As0.015 Te0.985,"[Element Sn, Element As, Element Te]","{'Sn': 0.97, 'As': 0.015, 'Te': 0.985}",Other,3
Sn0.97As0.017Te0.983,0.058,Sn0.97 As0.017 Te0.983,"[Element Sn, Element As, Element Te]","{'Sn': 0.97, 'As': 0.017, 'Te': 0.983}",Other,3
Sn0.97As0.02Te0.98,0.0318,Sn0.97 As0.02 Te0.98,"[Element Sn, Element As, Element Te]","{'Sn': 0.97, 'As': 0.02, 'Te': 0.98}",Other,3
Sn0.97As0.022Te0.978,0.0332,Sn0.97 As0.022 Te0.978,"[Element Sn, Element As, Element Te]","{'Sn': 0.97, 'As': 0.022, 'Te': 0.978}",Other,3
Sn0.97As0.025Te0.975,0.0138,Sn0.97 As0.025 Te0.975,"[Element Sn, Element As, Element Te]","{'Sn': 0.97, 'As': 0.025, 'Te': 0.975}",Other,3
Sn0.97As0.006Te0.994,0.048,Sn0.97 As0.006 Te0.994,"[Element Sn, Element As, Element Te]","{'Sn': 0.97, 'As': 0.006, 'Te': 0.994}",Other,3
Sn0.97As0.007Te0.993,0.038,Sn0.97 As0.007 Te0.993,"[Element Sn, Element As, Element Te]","{'Sn': 0.97, 'As': 0.007, 'Te': 0.993}",Other,3
Sn0.97As0.008Te0.992,0.022,Sn0.97 As0.008 Te0.992,"[Element Sn, Element As, Element Te]","{'Sn': 0.97, 'As': 0.008, 'Te': 0.992}",Other,3
Sn0.97As0.009Te0.991,0.0195,Sn0.97 As0.009 Te0.991,"[Element Sn, Element As, Element Te]","{'Sn': 0.97, 'As': 0.009, 'Te': 0.991}",Other,3
Ge2Rh3,2.12,Ge2 Rh3,"[Element Ge, Element Rh]","{'Ge': 2.0, 'Rh': 3.0}",Other,2
La3In0.7Al0.3,9.42,La3 In0.7 Al0.3,"[Element La, Element In, Element Al]","{'La': 3.0, 'In': 0.7, 'Al': 0.3}",Other,3
Nb0.75Mo0.25C1,12.0,Nb0.75 Mo0.25 C1,"[Element Nb, Element Mo, Element C]","{'Nb': 0.75, 'Mo': 0.25, 'C': 1.0}",Other,3
Nb0.5Mo0.5C1,13.1,Nb0.5 Mo0.5 C1,"[Element Nb, Element Mo, Element C]","{'Nb': 0.5, 'Mo': 0.5, 'C': 1.0}",Other,3
Nb0.25Mo0.75C1,13.1,Nb0.25 Mo0.75 C1,"[Element Nb, Element Mo, Element C]","{'Nb': 0.25, 'Mo': 0.75, 'C': 1.0}",Other,3
Nb0.05Mo0.95C1,13.5,Nb0.05 Mo0.95 C1,"[Element Nb, Element Mo, Element C]","{'Nb': 0.05, 'Mo': 0.95, 'C': 1.0}",Other,3
Nb0.9W0.1C1,11.6,Nb0.9 W0.1 C1,"[Element Nb, Element W, Element C]","{'Nb': 0.9, 'W': 0.1, 'C': 1.0}",Other,3
Nb0.75W0.25C1,13.1,Nb0.75 W0.25 C1,"[Element Nb, Element W, Element C]","{'Nb': 0.75, 'W': 0.25, 'C': 1.0}",Other,3
Nb0.7W0.3C1,13.2,Nb0.7 W0.3 C1,"[Element Nb, Element W, Element C]","{'Nb': 0.7, 'W': 0.3, 'C': 1.0}",Other,3
Nb0.65W0.35C1,13.0,Nb0.65 W0.35 C1,"[Element Nb, Element W, Element C]","{'Nb': 0.65, 'W': 0.35, 'C': 1.0}",Other,3
Nb0.5W0.5C1,12.5,Nb0.5 W0.5 C1,"[Element Nb, Element W, Element C]","{'Nb': 0.5, 'W': 0.5, 'C': 1.0}",Other,3
Nb0.2W0.8C1,11.0,Nb0.2 W0.8 C1,"[Element Nb, Element W, Element C]","{'Nb': 0.2, 'W': 0.8, 'C': 1.0}",Other,3
Nb0.2Ta0.8C1,9.0,Nb0.2 Ta0.8 C1,"[Element Nb, Element Ta, Element C]","{'Nb': 0.2, 'Ta': 0.8, 'C': 1.0}",Other,3
Mo0.9W0.1C1,11.7,Mo0.9 W0.1 C1,"[Element Mo, Element W, Element C]","{'Mo': 0.9, 'W': 0.1, 'C': 1.0}",Other,3
Mo0.8W0.2C1,12.0,Mo0.8 W0.2 C1,"[Element Mo, Element W, Element C]","{'Mo': 0.8, 'W': 0.2, 'C': 1.0}",Other,3
Mo0.6W0.4C1,11.3,Mo0.6 W0.4 C1,"[Element Mo, Element W, Element C]","{'Mo': 0.6, 'W': 0.4, 'C': 1.0}",Other,3
Mo0.4W0.6C1,11.3,Mo0.4 W0.6 C1,"[Element Mo, Element W, Element C]","{'Mo': 0.4, 'W': 0.6, 'C': 1.0}",Other,3
Mo0.2W0.8C1,10.1,Mo0.2 W0.8 C1,"[Element Mo, Element W, Element C]","{'Mo': 0.2, 'W': 0.8, 'C': 1.0}",Other,3
Mo0.1W0.9C1,9.0,Mo0.1 W0.9 C1,"[Element Mo, Element W, Element C]","{'Mo': 0.1, 'W': 0.9, 'C': 1.0}",Other,3
Ta0.6Mo0.4C1,8.67,Ta0.6 Mo0.4 C1,"[Element Ta, Element Mo, Element C]","{'Ta': 0.6, 'Mo': 0.4, 'C': 1.0}",Other,3
Ta0.4Mo0.6C1,9.18,Ta0.4 Mo0.6 C1,"[Element Ta, Element Mo, Element C]","{'Ta': 0.4, 'Mo': 0.6, 'C': 1.0}",Other,3
Ta0.05Mo0.95C1,11.8,Ta0.05 Mo0.95 C1,"[Element Ta, Element Mo, Element C]","{'Ta': 0.05, 'Mo': 0.95, 'C': 1.0}",Other,3
Ta0.8W0.2C1,9.92,Ta0.8 W0.2 C1,"[Element Ta, Element W, Element C]","{'Ta': 0.8, 'W': 0.2, 'C': 1.0}",Other,3
Ta0.6W0.4C1,10.0,Ta0.6 W0.4 C1,"[Element Ta, Element W, Element C]","{'Ta': 0.6, 'W': 0.4, 'C': 1.0}",Other,3
Ta0.4W0.6C1,9.41,Ta0.4 W0.6 C1,"[Element Ta, Element W, Element C]","{'Ta': 0.4, 'W': 0.6, 'C': 1.0}",Other,3
Ta0.2W0.8C1,8.96,Ta0.2 W0.8 C1,"[Element Ta, Element W, Element C]","{'Ta': 0.2, 'W': 0.8, 'C': 1.0}",Other,3
Mo0.95V0.05C1,13.9,Mo0.95 V0.05 C1,"[Element Mo, Element V, Element C]","{'Mo': 0.95, 'V': 0.05, 'C': 1.0}",Other,3
Mo0.95Ti0.05C1,13.5,Mo0.95 Ti0.05 C1,"[Element Mo, Element Ti, Element C]","{'Mo': 0.95, 'Ti': 0.05, 'C': 1.0}",Other,3
Mo0.95Hf0.05C1,12.7,Mo0.95 Hf0.05 C1,"[Element Mo, Element Hf, Element C]","{'Mo': 0.95, 'Hf': 0.05, 'C': 1.0}",Other,3
Mo0.9V0.1C1,13.3,Mo0.9 V0.1 C1,"[Element Mo, Element V, Element C]","{'Mo': 0.9, 'V': 0.1, 'C': 1.0}",Other,3
Mo0.9Ti0.1C1,13.1,Mo0.9 Ti0.1 C1,"[Element Mo, Element Ti, Element C]","{'Mo': 0.9, 'Ti': 0.1, 'C': 1.0}",Other,3
Mo0.9Hf0.1C1,11.9,Mo0.9 Hf0.1 C1,"[Element Mo, Element Hf, Element C]","{'Mo': 0.9, 'Hf': 0.1, 'C': 1.0}",Other,3
Mo0.84V0.16C1,12.9,Mo0.84 V0.16 C1,"[Element Mo, Element V, Element C]","{'Mo': 0.84, 'V': 0.16, 'C': 1.0}",Other,3
Mo0.84Ti0.16C1,12.8,Mo0.84 Ti0.16 C1,"[Element Mo, Element Ti, Element C]","{'Mo': 0.84, 'Ti': 0.16, 'C': 1.0}",Other,3
Mo0.84Hf0.16C1,11.5,Mo0.84 Hf0.16 C1,"[Element Mo, Element Hf, Element C]","{'Mo': 0.84, 'Hf': 0.16, 'C': 1.0}",Other,3
Mo0.8V0.2C1,12.8,Mo0.8 V0.2 C1,"[Element Mo, Element V, Element C]","{'Mo': 0.8, 'V': 0.2, 'C': 1.0}",Other,3
Mo0.8Ti0.2C1,12.0,Mo0.8 Ti0.2 C1,"[Element Mo, Element Ti, Element C]","{'Mo': 0.8, 'Ti': 0.2, 'C': 1.0}",Other,3
Mo0.8Hf0.2C1,11.4,Mo0.8 Hf0.2 C1,"[Element Mo, Element Hf, Element C]","{'Mo': 0.8, 'Hf': 0.2, 'C': 1.0}",Other,3
Au0.374Te0.626,1.3,Au0.374 Te0.626,"[Element Au, Element Te]","{'Au': 0.374, 'Te': 0.626}",Other,2
Au0.35Te0.65,1.58,Au0.35 Te0.65,"[Element Au, Element Te]","{'Au': 0.35, 'Te': 0.65}",Other,2
Au0.332Te0.668,1.89,Au0.332 Te0.668,"[Element Au, Element Te]","{'Au': 0.332, 'Te': 0.668}",Other,2
Au0.3Te0.7,1.99,Au0.3 Te0.7,"[Element Au, Element Te]","{'Au': 0.3, 'Te': 0.7}",Other,2
Au0.28Te0.72,1.96,Au0.28 Te0.72,"[Element Au, Element Te]","{'Au': 0.28, 'Te': 0.72}",Other,2
Au0.25Te0.75,1.85,Au0.25 Te0.75,"[Element Au, Element Te]","{'Au': 0.25, 'Te': 0.75}",Other,2
Au0.24Te0.76,1.72,Au0.24 Te0.76,"[Element Au, Element Te]","{'Au': 0.24, 'Te': 0.76}",Other,2
Au0.22Te0.78,1.54,Au0.22 Te0.78,"[Element Au, Element Te]","{'Au': 0.22, 'Te': 0.78}",Other,2
Au0.2Te0.8,1.48,Au0.2 Te0.8,"[Element Au, Element Te]","{'Au': 0.2, 'Te': 0.8}",Other,2
Au0.18Te0.82,1.56,Au0.18 Te0.82,"[Element Au, Element Te]","{'Au': 0.18, 'Te': 0.82}",Other,2
Au0.16Te0.84,1.71,Au0.16 Te0.84,"[Element Au, Element Te]","{'Au': 0.16, 'Te': 0.84}",Other,2
Au0.15Te0.85,1.64,Au0.15 Te0.85,"[Element Au, Element Te]","{'Au': 0.15, 'Te': 0.85}",Other,2
Au0.14Te0.86,1.7,Au0.14 Te0.86,"[Element Au, Element Te]","{'Au': 0.14, 'Te': 0.86}",Other,2
Bi0.02Sn0.98,3.85,Bi0.02 Sn0.98,"[Element Bi, Element Sn]","{'Bi': 0.02, 'Sn': 0.98}",Other,2
Bi0.04Sn0.96,3.86,Bi0.04 Sn0.96,"[Element Bi, Element Sn]","{'Bi': 0.04, 'Sn': 0.96}",Other,2
Bi0.045Sn0.955,3.88,Bi0.045 Sn0.955,"[Element Bi, Element Sn]","{'Bi': 0.045, 'Sn': 0.955}",Other,2
Bi0.05Sn0.95,3.93,Bi0.05 Sn0.95,"[Element Bi, Element Sn]","{'Bi': 0.05, 'Sn': 0.95}",Other,2
Bi0.055Sn0.945,3.94,Bi0.055 Sn0.945,"[Element Bi, Element Sn]","{'Bi': 0.055, 'Sn': 0.945}",Other,2
Bi0.06Sn0.94,4.1,Bi0.06 Sn0.94,"[Element Bi, Element Sn]","{'Bi': 0.06, 'Sn': 0.94}",Other,2
Bi0.08Sn0.92,4.15,Bi0.08 Sn0.92,"[Element Bi, Element Sn]","{'Bi': 0.08, 'Sn': 0.92}",Other,2
Bi0.1Sn0.9,4.18,Bi0.1 Sn0.9,"[Element Bi, Element Sn]","{'Bi': 0.1, 'Sn': 0.9}",Other,2
Sb0.02Sn0.98,2.64,Sb0.02 Sn0.98,"[Element Sb, Element Sn]","{'Sb': 0.02, 'Sn': 0.98}",Other,2
Sb0.04Sn0.96,3.76,Sb0.04 Sn0.96,"[Element Sb, Element Sn]","{'Sb': 0.04, 'Sn': 0.96}",Other,2
Sb0.06Sn0.94,3.96,Sb0.06 Sn0.94,"[Element Sb, Element Sn]","{'Sb': 0.06, 'Sn': 0.94}",Other,2
Sb0.08Sn0.92,3.89,Sb0.08 Sn0.92,"[Element Sb, Element Sn]","{'Sb': 0.08, 'Sn': 0.92}",Other,2
Ga0.8Sb0.2,6.18,Ga0.8 Sb0.2,"[Element Ga, Element Sb]","{'Ga': 0.8, 'Sb': 0.2}",Other,2
Ga0.58Sb0.42,1.17,Ga0.58 Sb0.42,"[Element Ga, Element Sb]","{'Ga': 0.58, 'Sb': 0.42}",Other,2
Bi0.9Sb0.1,5.2,Bi0.9 Sb0.1,"[Element Bi, Element Sb]","{'Bi': 0.9, 'Sb': 0.1}",Other,2
Bi0.7Sb0.3,4.14,Bi0.7 Sb0.3,"[Element Bi, Element Sb]","{'Bi': 0.7, 'Sb': 0.3}",Other,2
Bi0.5Sb0.5,2.94,Bi0.5 Sb0.5,"[Element Bi, Element Sb]","{'Bi': 0.5, 'Sb': 0.5}",Other,2
Pb0.52Tl0.48,5.54,Pb0.52 Tl0.48,"[Element Pb, Element Tl]","{'Pb': 0.52, 'Tl': 0.48}",Other,2
Pb0.06Tl0.94,2.7,Pb0.06 Tl0.94,"[Element Pb, Element Tl]","{'Pb': 0.06, 'Tl': 0.94}",Other,2
Bi0.6Tl0.4,6.0,Bi0.6 Tl0.4,"[Element Bi, Element Tl]","{'Bi': 0.6, 'Tl': 0.4}",Other,2
C0.3Ba2Ca4Cu5.7O11.18,117.5,C0.3 Ba2 Ca4 Cu5.7 O11.18,"[Element C, Element Ba, Element Ca, Element Cu, Element O]","{'C': 0.3, 'Ba': 2.0, 'Ca': 4.0, 'Cu': 5.7, 'O': 11.18}",Cuprates,5
C0.3Ba2Ca4Cu5.7O10.77,116.7,C0.3 Ba2 Ca4 Cu5.7 O10.77,"[Element C, Element Ba, Element Ca, Element Cu, Element O]","{'C': 0.3, 'Ba': 2.0, 'Ca': 4.0, 'Cu': 5.7, 'O': 10.77}",Cuprates,5
C0.3Ba2Ca4Cu5.7O10.69,116.3,C0.3 Ba2 Ca4 Cu5.7 O10.69,"[Element C, Element Ba, Element Ca, Element Cu, Element O]","{'C': 0.3, 'Ba': 2.0, 'Ca': 4.0, 'Cu': 5.7, 'O': 10.69}",Cuprates,5
C0.3Ba2Ca4Cu5.7O10.66,115.7,C0.3 Ba2 Ca4 Cu5.7 O10.66,"[Element C, Element Ba, Element Ca, Element Cu, Element O]","{'C': 0.3, 'Ba': 2.0, 'Ca': 4.0, 'Cu': 5.7, 'O': 10.66}",Cuprates,5
C0.3Ba2Ca4Cu5.7O10.57,115.1,C0.3 Ba2 Ca4 Cu5.7 O10.57,"[Element C, Element Ba, Element Ca, Element Cu, Element O]","{'C': 0.3, 'Ba': 2.0, 'Ca': 4.0, 'Cu': 5.7, 'O': 10.57}",Cuprates,5
C0.3Ba2Ca4Cu5.7O10.45,114.3,C0.3 Ba2 Ca4 Cu5.7 O10.45,"[Element C, Element Ba, Element Ca, Element Cu, Element O]","{'C': 0.3, 'Ba': 2.0, 'Ca': 4.0, 'Cu': 5.7, 'O': 10.45}",Cuprates,5
C0.3Ba2Ca4Cu5.7O10.34,113.5,C0.3 Ba2 Ca4 Cu5.7 O10.34,"[Element C, Element Ba, Element Ca, Element Cu, Element O]","{'C': 0.3, 'Ba': 2.0, 'Ca': 4.0, 'Cu': 5.7, 'O': 10.34}",Cuprates,5
Ba2Ca3Cu4O10.35,116.0,Ba2 Ca3 Cu4 O10.35,"[Element Ba, Element Ca, Element Cu, Element O]","{'Ba': 2.0, 'Ca': 3.0, 'Cu': 4.0, 'O': 10.35}",Cuprates,4
Nb0.9Mg0.1B2,4.5,Nb0.9 Mg0.1 B2,"[Element Nb, Element Mg, Element B]","{'Nb': 0.9, 'Mg': 0.1, 'B': 2.0}",Other,3
Nb0.75Mg0.25B2,4.5,Nb0.75 Mg0.25 B2,"[Element Nb, Element Mg, Element B]","{'Nb': 0.75, 'Mg': 0.25, 'B': 2.0}",Other,3
Mg1B1.87C0.13,28.0,Mg1 B1.87 C0.13,"[Element Mg, Element B, Element C]","{'Mg': 1.0, 'B': 1.87, 'C': 0.13}",Other,3
La0.8Rh4P12,14.9,La0.8 Rh4 P12,"[Element La, Element Rh, Element P]","{'La': 0.8, 'Rh': 4.0, 'P': 12.0}",Other,3