chemical_formula,Tc,composition,elements,stoichiometry,Category,num_elements
Nb1C0.3N0.7,17.8,Nb1 C0.3 N0.7,"[Element Nb, Element C, Element N]","{'Nb': 1.0, 'C': 0.3, 'N': 0.7}",Other,3
Nb1C0.28N0.78,17.9,Nb1 C0.28 N0.78,"[Element Nb, Element C, Element N]","{'Nb': 1.0, 'C': 0.28, 'N': 0.78}",Other,3
N12.8Nb1,16.1,N12.8 Nb1,"[Element N, Element Nb]","{'N': 12.8, 'Nb': 1.0}",Other,2
Mo0.1U0.9,1.85,Mo0.1 U0.9,"[Element Mo, Element U]","{'Mo': 0.1, 'U': 0.9}",Other,2
Nb25Ti75,7.2,Nb25 Ti75,"[Element Nb, Element Ti]","{'Nb': 25.0, 'Ti': 75.0}",Other,2
Nb0.97Cr0.03N1,1.2,Nb0.97 Cr0.03 N1,"[Element Nb, Element Cr, Element N]","{'Nb': 0.97, 'Cr': 0.03, 'N': 1.0}",Other,3
Nb0.99Cr0.01N1,1.2,Nb0.99 Cr0.01 N1,"[Element Nb, Element Cr, Element N]","{'Nb': 0.99, 'Cr': 0.01, 'N': 1.0}",Other,3
Hf1Ti1C1,1.38,Hf1 Ti1 C1,"[Element Hf, Element Ti, Element C]","{'Hf': 1.0, 'Ti': 1.0, 'C': 1.0}",Other,3
Hf1Nb1C1,7.5,Hf1 Nb1 C1,"[Element Hf, Element Nb, Element C]","{'Hf': 1.0, 'Nb': 1.0, 'C': 1.0}",Other,3
Hf1Ta1C1,7.9,Hf1 Ta1 C1,"[Element Hf, Element Ta, Element C]","{'Hf': 1.0, 'Ta': 1.0, 'C': 1.0}",Other,3
Nb0.8W0.2C1,12.7,Nb0.8 W0.2 C1,"[Element Nb, Element W, Element C]","{'Nb': 0.8, 'W': 0.2, 'C': 1.0}",Other,3
Nb5V50Ti45,7.4,Nb5 V50 Ti45,"[Element Nb, Element V, Element Ti]","{'Nb': 5.0, 'V': 50.0, 'Ti': 45.0}",Other,3
Nb1V50Ti49,7.5,Nb1 V50 Ti49,"[Element Nb, Element V, Element Ti]","{'Nb': 1.0, 'V': 50.0, 'Ti': 49.0}",Other,3
Ti50V50,7.8,Ti50 V50,"[Element Ti, Element V]","{'Ti': 50.0, 'V': 50.0}",Other,2
Nb20Ti75Ta5,7.1,Nb20 Ti75 Ta5,"[Element Nb, Element Ti, Element Ta]","{'Nb': 20.0, 'Ti': 75.0, 'Ta': 5.0}",Other,3
Nb24Ti75Ta1,7.4,Nb24 Ti75 Ta1,"[Element Nb, Element Ti, Element Ta]","{'Nb': 24.0, 'Ti': 75.0, 'Ta': 1.0}",Other,3
Nb25Ti50Ta25,8.6,Nb25 Ti50 Ta25,"[Element Nb, Element Ti, Element Ta]","{'Nb': 25.0, 'Ti': 50.0, 'Ta': 25.0}",Other,3
Nb25Ti65Ta10,8.4,Nb25 Ti65 Ta10,"[Element Nb, Element Ti, Element Ta]","{'Nb': 25.0, 'Ti': 65.0, 'Ta': 10.0}",Other,3
Nb25Ti70Ta5,7.85,Nb25 Ti70 Ta5,"[Element Nb, Element Ti, Element Ta]","{'Nb': 25.0, 'Ti': 70.0, 'Ta': 5.0}",Other,3
Nb25Ti74Ta1,7.55,Nb25 Ti74 Ta1,"[Element Nb, Element Ti, Element Ta]","{'Nb': 25.0, 'Ti': 74.0, 'Ta': 1.0}",Other,3
Nb25V25Ti50,7.3,Nb25 V25 Ti50,"[Element Nb, Element V, Element Ti]","{'Nb': 25.0, 'V': 25.0, 'Ti': 50.0}",Other,3
Nb25V10Ti65,8.0,Nb25 V10 Ti65,"[Element Nb, Element V, Element Ti]","{'Nb': 25.0, 'V': 10.0, 'Ti': 65.0}",Other,3
Nb25V5Ti70,7.7,Nb25 V5 Ti70,"[Element Nb, Element V, Element Ti]","{'Nb': 25.0, 'V': 5.0, 'Ti': 70.0}",Other,3
Nb10V50Ti40,7.1,Nb10 V50 Ti40,"[Element Nb, Element V, Element Ti]","{'Nb': 10.0, 'V': 50.0, 'Ti': 40.0}",Other,3
V50Ti49.5Ta0.5,4.505,V50 Ti49.5 Ta0.5,"[Element V, Element Ti, Element Ta]","{'V': 50.0, 'Ti': 49.5, 'Ta': 0.5}",Other,3
Nb25Ti50Mo25,4.3,Nb25 Ti50 Mo25,"[Element Nb, Element Ti, Element Mo]","{'Nb': 25.0, 'Ti': 50.0, 'Mo': 25.0}",Other,3
Nb25Ti65Mo10,6.8,Nb25 Ti65 Mo10,"[Element Nb, Element Ti, Element Mo]","{'Nb': 25.0, 'Ti': 65.0, 'Mo': 10.0}",Other,3
Nb25Ti70Mo5,7.4,Nb25 Ti70 Mo5,"[Element Nb, Element Ti, Element Mo]","{'Nb': 25.0, 'Ti': 70.0, 'Mo': 5.0}",Other,3
Nb25Ti74Mo1,7.3,Nb25 Ti74 Mo1,"[Element Nb, Element Ti, Element Mo]","{'Nb': 25.0, 'Ti': 74.0, 'Mo': 1.0}",Other,3
Ta25Ti75,6.0,Ta25 Ti75,"[Element Ta, Element Ti]","{'Ta': 25.0, 'Ti': 75.0}",Other,2
Nb15Ti75Ta10,6.7,Nb15 Ti75 Ta10,"[Element Nb, Element Ti, Element Ta]","{'Nb': 15.0, 'Ti': 75.0, 'Ta': 10.0}",Other,3
V50Ti40Mo10,6.2,V50 Ti40 Mo10,"[Element V, Element Ti, Element Mo]","{'V': 50.0, 'Ti': 40.0, 'Mo': 10.0}",Other,3
V50Ti45Mo5,6.9,V50 Ti45 Mo5,"[Element V, Element Ti, Element Mo]","{'V': 50.0, 'Ti': 45.0, 'Mo': 5.0}",Other,3
V50Ti49Mo1,6.9,V50 Ti49 Mo1,"[Element V, Element Ti, Element Mo]","{'V': 50.0, 'Ti': 49.0, 'Mo': 1.0}",Other,3
V50Ti40Ta10,4.6,V50 Ti40 Ta10,"[Element V, Element Ti, Element Ta]","{'V': 50.0, 'Ti': 40.0, 'Ta': 10.0}",Other,3
V50Ti45Ta5,4.55,V50 Ti45 Ta5,"[Element V, Element Ti, Element Ta]","{'V': 50.0, 'Ti': 45.0, 'Ta': 5.0}",Other,3
V50Ti49Ta1,4.51,V50 Ti49 Ta1,"[Element V, Element Ti, Element Ta]","{'V': 50.0, 'Ti': 49.0, 'Ta': 1.0}",Other,3
Cu1.3Mo6S8,10.3,Cu1.3 Mo6 S8,"[Element Cu, Element Mo, Element S]","{'Cu': 1.3, 'Mo': 6.0, 'S': 8.0}",Other,3
Cu2Mo6S8,10.8,Cu2 Mo6 S8,"[Element Cu, Element Mo, Element S]","{'Cu': 2.0, 'Mo': 6.0, 'S': 8.0}",Other,3
Cu3Mo6S8,5.5,Cu3 Mo6 S8,"[Element Cu, Element Mo, Element S]","{'Cu': 3.0, 'Mo': 6.0, 'S': 8.0}",Other,3
Sn1Mo6S8,10.5,Sn1 Mo6 S8,"[Element Sn, Element Mo, Element S]","{'Sn': 1.0, 'Mo': 6.0, 'S': 8.0}",Other,3
Mo6Se8,6.3,Mo6 Se8,"[Element Mo, Element Se]","{'Mo': 6.0, 'Se': 8.0}",Other,2
Sn1Fe0.05Mo6S8,7.05,Sn1 Fe0.05 Mo6 S8,"[Element Sn, Element Fe, Element Mo, Element S]","{'Sn': 1.0, 'Fe': 0.05, 'Mo': 6.0, 'S': 8.0}",Fe-based,4
Pb1Mo6S8,12.7,Pb1 Mo6 S8,"[Element Pb, Element Mo, Element S]","{'Pb': 1.0, 'Mo': 6.0, 'S': 8.0}",Other,3
Sn0.5Eu0.5Mo6S8,10.2,Sn0.5 Eu0.5 Mo6 S8,"[Element Sn, Element Eu, Element Mo, Element S]","{'Sn': 0.5, 'Eu': 0.5, 'Mo': 6.0, 'S': 8.0}",Other,4
Cu1.6Mo6S8,11.3,Cu1.6 Mo6 S8,"[Element Cu, Element Mo, Element S]","{'Cu': 1.6, 'Mo': 6.0, 'S': 8.0}",Other,3
Cu2.6Mo6S8,10.5,Cu2.6 Mo6 S8,"[Element Cu, Element Mo, Element S]","{'Cu': 2.6, 'Mo': 6.0, 'S': 8.0}",Other,3
Cu3.2Mo6S8,8.5,Cu3.2 Mo6 S8,"[Element Cu, Element Mo, Element S]","{'Cu': 3.2, 'Mo': 6.0, 'S': 8.0}",Other,3
La1Pt2B2C1,10.5,La1 Pt2 B2 C1,"[Element La, Element Pt, Element B, Element C]","{'La': 1.0, 'Pt': 2.0, 'B': 2.0, 'C': 1.0}",Other,4
La1Pt2.2B2C1,6.5,La1 Pt2.2 B2 C1,"[Element La, Element Pt, Element B, Element C]","{'La': 1.0, 'Pt': 2.2, 'B': 2.0, 'C': 1.0}",Other,4
La3Ni2B2N3,12.3,La3 Ni2 B2 N3,"[Element La, Element Ni, Element B, Element N]","{'La': 3.0, 'Ni': 2.0, 'B': 2.0, 'N': 3.0}",Other,4
Th1Ni2B2C1,6.5,Th1 Ni2 B2 C1,"[Element Th, Element Ni, Element B, Element C]","{'Th': 1.0, 'Ni': 2.0, 'B': 2.0, 'C': 1.0}",Other,4
Th1Pt2B2C1,6.7,Th1 Pt2 B2 C1,"[Element Th, Element Pt, Element B, Element C]","{'Th': 1.0, 'Pt': 2.0, 'B': 2.0, 'C': 1.0}",Other,4
La0.5Th0.5Ni2B2C1,3.9,La0.5 Th0.5 Ni2 B2 C1,"[Element La, Element Th, Element Ni, Element B, Element C]","{'La': 0.5, 'Th': 0.5, 'Ni': 2.0, 'B': 2.0, 'C': 1.0}",Other,5
Sc0.5Lu0.5Ni2B2C1,15.6,Sc0.5 Lu0.5 Ni2 B2 C1,"[Element Sc, Element Lu, Element Ni, Element B, Element C]","{'Sc': 0.5, 'Lu': 0.5, 'Ni': 2.0, 'B': 2.0, 'C': 1.0}",Other,5
La0.5Lu0.5Ni2B2C1,14.8,La0.5 Lu0.5 Ni2 B2 C1,"[Element La, Element Lu, Element Ni, Element B, Element C]","{'La': 0.5, 'Lu': 0.5, 'Ni': 2.0, 'B': 2.0, 'C': 1.0}",Other,5
Lu1Ni2B2C1,16.6,Lu1 Ni2 B2 C1,"[Element Lu, Element Ni, Element B, Element C]","{'Lu': 1.0, 'Ni': 2.0, 'B': 2.0, 'C': 1.0}",Other,4
Tm1Ni2B2C1,11.1,Tm1 Ni2 B2 C1,"[Element Tm, Element Ni, Element B, Element C]","{'Tm': 1.0, 'Ni': 2.0, 'B': 2.0, 'C': 1.0}",Other,4
Er1Ni2B2C1,10.0,Er1 Ni2 B2 C1,"[Element Er, Element Ni, Element B, Element C]","{'Er': 1.0, 'Ni': 2.0, 'B': 2.0, 'C': 1.0}",Other,4
Ho1Ni2B2C1,5.8,Ho1 Ni2 B2 C1,"[Element Ho, Element Ni, Element B, Element C]","{'Ho': 1.0, 'Ni': 2.0, 'B': 2.0, 'C': 1.0}",Other,4
La1Pt1.5Au0.6B2C1,10.2,La1 Pt1.5 Au0.6 B2 C1,"[Element La, Element Pt, Element Au, Element B, Element C]","{'La': 1.0, 'Pt': 1.5, 'Au': 0.6, 'B': 2.0, 'C': 1.0}",Other,5
Pr1Pt1.5Au0.6B2C1,6.0,Pr1 Pt1.5 Au0.6 B2 C1,"[Element Pr, Element Pt, Element Au, Element B, Element C]","{'Pr': 1.0, 'Pt': 1.5, 'Au': 0.6, 'B': 2.0, 'C': 1.0}",Other,5
Cu0.9Co1.9S4,1.6,Cu0.9 Co1.9 S4,"[Element Cu, Element Co, Element S]","{'Cu': 0.9, 'Co': 1.9, 'S': 4.0}",Other,3
Cu1.2Co1.8S4,2.3,Cu1.2 Co1.8 S4,"[Element Cu, Element Co, Element S]","{'Cu': 1.2, 'Co': 1.8, 'S': 4.0}",Other,3
Cu1.5Co1.5S4,3.3,Cu1.5 Co1.5 S4,"[Element Cu, Element Co, Element S]","{'Cu': 1.5, 'Co': 1.5, 'S': 4.0}",Other,3
Tm1Rh1.3Sn4,2.07,Tm1 Rh1.3 Sn4,"[Element Tm, Element Rh, Element Sn]","{'Tm': 1.0, 'Rh': 1.3, 'Sn': 4.0}",Other,3
Pt3V1,0.508,Pt3 V1,"[Element Pt, Element V]","{'Pt': 3.0, 'V': 1.0}",Other,2
Th7Fe1.86Co1.14,1.07,Th7 Fe1.86 Co1.14,"[Element Th, Element Fe, Element Co]","{'Th': 7.0, 'Fe': 1.86, 'Co': 1.14}",Fe-based,3
Th7Fe0.72Co2.28,2.27,Th7 Fe0.72 Co2.28,"[Element Th, Element Fe, Element Co]","{'Th': 7.0, 'Fe': 0.72, 'Co': 2.28}",Fe-based,3
Th7Fe2.43Ni0.57,1.05,Th7 Fe2.43 Ni0.57,"[Element Th, Element Fe, Element Ni]","{'Th': 7.0, 'Fe': 2.43, 'Ni': 0.57}",Fe-based,3
La1Os1Ru3P12,7.0,La1 Os1 Ru3 P12,"[Element La, Element Os, Element Ru, Element P]","{'La': 1.0, 'Os': 1.0, 'Ru': 3.0, 'P': 12.0}",Other,4
La1Os2Ru2P12,7.0,La1 Os2 Ru2 P12,"[Element La, Element Os, Element Ru, Element P]","{'La': 1.0, 'Os': 2.0, 'Ru': 2.0, 'P': 12.0}",Other,4
La1Ru4As12,10.3,La1 Ru4 As12,"[Element La, Element Ru, Element As]","{'La': 1.0, 'Ru': 4.0, 'As': 12.0}",Other,3
La1Ru4Sb12,2.8,La1 Ru4 Sb12,"[Element La, Element Ru, Element Sb]","{'La': 1.0, 'Ru': 4.0, 'Sb': 12.0}",Other,3
Pr1Ru4As12,2.4,Pr1 Ru4 As12,"[Element Pr, Element Ru, Element As]","{'Pr': 1.0, 'Ru': 4.0, 'As': 12.0}",Other,3
C1.35La1,11.0,C1.35 La1,"[Element C, Element La]","{'C': 1.35, 'La': 1.0}",Other,2
La1.9Th0.1C1.35,12.7,La1.9 Th0.1 C1.35,"[Element La, Element Th, Element C]","{'La': 1.9, 'Th': 0.1, 'C': 1.35}",Other,3
Hf1N1Cl1,25.5,Hf1 N1 Cl1,"[Element Hf, Element N, Element Cl]","{'Hf': 1.0, 'N': 1.0, 'Cl': 1.0}",Other,3
Na2.9Ba4.5Si46,3.5,Na2.9 Ba4.5 Si46,"[Element Na, Element Ba, Element Si]","{'Na': 2.9, 'Ba': 4.5, 'Si': 46.0}",Other,3
Na1.5Ba6Si46,2.6,Na1.5 Ba6 Si46,"[Element Na, Element Ba, Element Si]","{'Na': 1.5, 'Ba': 6.0, 'Si': 46.0}",Other,3
Na0.3Ba6.2Si46,4.0,Na0.3 Ba6.2 Si46,"[Element Na, Element Ba, Element Si]","{'Na': 0.3, 'Ba': 6.2, 'Si': 46.0}",Other,3
Na0.2Ba6Si46,4.8,Na0.2 Ba6 Si46,"[Element Na, Element Ba, Element Si]","{'Na': 0.2, 'Ba': 6.0, 'Si': 46.0}",Other,3
Ba1Si2,5.3,Ba1 Si2,"[Element Ba, Element Si]","{'Ba': 1.0, 'Si': 2.0}",Other,2
Ba1Ta2S5,3.14,Ba1 Ta2 S5,"[Element Ba, Element Ta, Element S]","{'Ba': 1.0, 'Ta': 2.0, 'S': 5.0}",Other,3
La0.84Mo6Se8,9.4,La0.84 Mo6 Se8,"[Element La, Element Mo, Element Se]","{'La': 0.84, 'Mo': 6.0, 'Se': 8.0}",Other,3
La0.88Mo6Se8,10.25,La0.88 Mo6 Se8,"[Element La, Element Mo, Element Se]","{'La': 0.88, 'Mo': 6.0, 'Se': 8.0}",Other,3
La0.94Mo6Se8,11.0,La0.94 Mo6 Se8,"[Element La, Element Mo, Element Se]","{'La': 0.94, 'Mo': 6.0, 'Se': 8.0}",Other,3
Sn0.875Mo6S8,14.048,Sn0.875 Mo6 S8,"[Element Sn, Element Mo, Element S]","{'Sn': 0.875, 'Mo': 6.0, 'S': 8.0}",Other,3
W0.25Sn0.875Mo6S8,13.635,W0.25 Sn0.875 Mo6 S8,"[Element W, Element Sn, Element Mo, Element S]","{'W': 0.25, 'Sn': 0.875, 'Mo': 6.0, 'S': 8.0}",Other,4
Sr1Ta2S5,2.75,Sr1 Ta2 S5,"[Element Sr, Element Ta, Element S]","{'Sr': 1.0, 'Ta': 2.0, 'S': 5.0}",Other,3
La1Pt1.5Au0.6B2.4C1.2,11.0,La1 Pt1.5 Au0.6 B2.4 C1.2,"[Element La, Element Pt, Element Au, Element B, Element C]","{'La': 1.0, 'Pt': 1.5, 'Au': 0.6, 'B': 2.4, 'C': 1.2}",Other,5
Pr1Pt1.5Au0.6B2.4C1.2,6.2,Pr1 Pt1.5 Au0.6 B2.4 C1.2,"[Element Pr, Element Pt, Element Au, Element B, Element C]","{'Pr': 1.0, 'Pt': 1.5, 'Au': 0.6, 'B': 2.4, 'C': 1.2}",Other,5
Li2Na1N1C60,12.0,Li2 Na1 N1 C60,"[Element Li, Element Na, Element N, Element C]","{'Li': 2.0, 'Na': 1.0, 'N': 1.0, 'C': 60.0}",Other,4
Na4H4C60,15.0,Na4 H4 C60,"[Element Na, Element H, Element C]","{'Na': 4.0, 'H': 4.0, 'C': 60.0}",Hydrides,3
Lu1Ni0.9V0.1B1C1,2.94,Lu1 Ni0.9 V0.1 B1 C1,"[Element Lu, Element Ni, Element V, Element B, Element C]","{'Lu': 1.0, 'Ni': 0.9, 'V': 0.1, 'B': 1.0, 'C': 1.0}",Other,5
Lu1Ni0.8V0.2B1C1,2.6,Lu1 Ni0.8 V0.2 B1 C1,"[Element Lu, Element Ni, Element V, Element B, Element C]","{'Lu': 1.0, 'Ni': 0.8, 'V': 0.2, 'B': 1.0, 'C': 1.0}",Other,5
Lu1Ni0.9Cu0.1B1C1,3.3,Lu1 Ni0.9 Cu0.1 B1 C1,"[Element Lu, Element Ni, Element Cu, Element B, Element C]","{'Lu': 1.0, 'Ni': 0.9, 'Cu': 0.1, 'B': 1.0, 'C': 1.0}",Other,5
Lu1Ni0.8Cu0.2B1C1,3.38,Lu1 Ni0.8 Cu0.2 B1 C1,"[Element Lu, Element Ni, Element Cu, Element B, Element C]","{'Lu': 1.0, 'Ni': 0.8, 'Cu': 0.2, 'B': 1.0, 'C': 1.0}",Other,5
Lu1Ni1.97Co0.06B2C1,14.0,Lu1 Ni1.97 Co0.06 B2 C1,"[Element Lu, Element Ni, Element Co, Element B, Element C]","{'Lu': 1.0, 'Ni': 1.97, 'Co': 0.06, 'B': 2.0, 'C': 1.0}",Other,5
Lu1Ni0.91Co0.18B2C1,8.8,Lu1 Ni0.91 Co0.18 B2 C1,"[Element Lu, Element Ni, Element Co, Element B, Element C]","{'Lu': 1.0, 'Ni': 0.91, 'Co': 0.18, 'B': 2.0, 'C': 1.0}",Other,5
Lu1Ni1.85Co0.3B2C1,4.8,Lu1 Ni1.85 Co0.3 B2 C1,"[Element Lu, Element Ni, Element Co, Element B, Element C]","{'Lu': 1.0, 'Ni': 1.85, 'Co': 0.3, 'B': 2.0, 'C': 1.0}",Other,5
Ho1Ni1.995Co0.01B2C1,6.72,Ho1 Ni1.995 Co0.01 B2 C1,"[Element Ho, Element Ni, Element Co, Element B, Element C]","{'Ho': 1.0, 'Ni': 1.995, 'Co': 0.01, 'B': 2.0, 'C': 1.0}",Other,5
Ho1Ni1.95Co0.03B2C1,4.51,Ho1 Ni1.95 Co0.03 B2 C1,"[Element Ho, Element Ni, Element Co, Element B, Element C]","{'Ho': 1.0, 'Ni': 1.95, 'Co': 0.03, 'B': 2.0, 'C': 1.0}",Other,5
Er1Ni1.98Co0.04B2C1,8.2,Er1 Ni1.98 Co0.04 B2 C1,"[Element Er, Element Ni, Element Co, Element B, Element C]","{'Er': 1.0, 'Ni': 1.98, 'Co': 0.04, 'B': 2.0, 'C': 1.0}",Other,5
Er1Ni1.97Co0.06B2C1,6.6,Er1 Ni1.97 Co0.06 B2 C1,"[Element Er, Element Ni, Element Co, Element B, Element C]","{'Er': 1.0, 'Ni': 1.97, 'Co': 0.06, 'B': 2.0, 'C': 1.0}",Other,5
Er1Ni1.9675Co0.065B2C1,6.2,Er1 Ni1.9675 Co0.065 B2 C1,"[Element Er, Element Ni, Element Co, Element B, Element C]","{'Er': 1.0, 'Ni': 1.9675, 'Co': 0.065, 'B': 2.0, 'C': 1.0}",Other,5
Er1Ni1.9625Co0.075B2C1,5.1,Er1 Ni1.9625 Co0.075 B2 C1,"[Element Er, Element Ni, Element Co, Element B, Element C]","{'Er': 1.0, 'Ni': 1.9625, 'Co': 0.075, 'B': 2.0, 'C': 1.0}",Other,5
Lu1Ni1.991Co0.018B2C1,15.6,Lu1 Ni1.991 Co0.018 B2 C1,"[Element Lu, Element Ni, Element Co, Element B, Element C]","{'Lu': 1.0, 'Ni': 1.991, 'Co': 0.018, 'B': 2.0, 'C': 1.0}",Other,5
Lu1Ni1.95Co0.1B2C1,12.3,Lu1 Ni1.95 Co0.1 B2 C1,"[Element Lu, Element Ni, Element Co, Element B, Element C]","{'Lu': 1.0, 'Ni': 1.95, 'Co': 0.1, 'B': 2.0, 'C': 1.0}",Other,5
Lu1Ni1.93Co0.14B2C1,10.5,Lu1 Ni1.93 Co0.14 B2 C1,"[Element Lu, Element Ni, Element Co, Element B, Element C]","{'Lu': 1.0, 'Ni': 1.93, 'Co': 0.14, 'B': 2.0, 'C': 1.0}",Other,5
Lu1Ni1.89Co0.22B2C1,7.5,Lu1 Ni1.89 Co0.22 B2 C1,"[Element Lu, Element Ni, Element Co, Element B, Element C]","{'Lu': 1.0, 'Ni': 1.89, 'Co': 0.22, 'B': 2.0, 'C': 1.0}",Other,5
Lu1Ni1.87Co0.26B2C1,6.0,Lu1 Ni1.87 Co0.26 B2 C1,"[Element Lu, Element Ni, Element Co, Element B, Element C]","{'Lu': 1.0, 'Ni': 1.87, 'Co': 0.26, 'B': 2.0, 'C': 1.0}",Other,5
Lu1Ni1.83Co0.34B2C1,3.8,Lu1 Ni1.83 Co0.34 B2 C1,"[Element Lu, Element Ni, Element Co, Element B, Element C]","{'Lu': 1.0, 'Ni': 1.83, 'Co': 0.34, 'B': 2.0, 'C': 1.0}",Other,5
Lu1Ni1.81Co0.38B2C1,2.9,Lu1 Ni1.81 Co0.38 B2 C1,"[Element Lu, Element Ni, Element Co, Element B, Element C]","{'Lu': 1.0, 'Ni': 1.81, 'Co': 0.38, 'B': 2.0, 'C': 1.0}",Other,5
Lu1Ni1.8Co0.4B2C1,2.6,Lu1 Ni1.8 Co0.4 B2 C1,"[Element Lu, Element Ni, Element Co, Element B, Element C]","{'Lu': 1.0, 'Ni': 1.8, 'Co': 0.4, 'B': 2.0, 'C': 1.0}",Other,5
Tm1Ni1.99Co0.02B2C1,10.3,Tm1 Ni1.99 Co0.02 B2 C1,"[Element Tm, Element Ni, Element Co, Element B, Element C]","{'Tm': 1.0, 'Ni': 1.99, 'Co': 0.02, 'B': 2.0, 'C': 1.0}",Other,5
Tm1Ni1.98Co0.04B2C1,9.2,Tm1 Ni1.98 Co0.04 B2 C1,"[Element Tm, Element Ni, Element Co, Element B, Element C]","{'Tm': 1.0, 'Ni': 1.98, 'Co': 0.04, 'B': 2.0, 'C': 1.0}",Other,5
Tm1Ni1.97Co0.06B2C1,8.7,Tm1 Ni1.97 Co0.06 B2 C1,"[Element Tm, Element Ni, Element Co, Element B, Element C]","{'Tm': 1.0, 'Ni': 1.97, 'Co': 0.06, 'B': 2.0, 'C': 1.0}",Other,5
Tm1Ni1.96Co0.08B2C1,7.7,Tm1 Ni1.96 Co0.08 B2 C1,"[Element Tm, Element Ni, Element Co, Element B, Element C]","{'Tm': 1.0, 'Ni': 1.96, 'Co': 0.08, 'B': 2.0, 'C': 1.0}",Other,5
Tm1Ni1.94Co0.12B2C1,5.9,Tm1 Ni1.94 Co0.12 B2 C1,"[Element Tm, Element Ni, Element Co, Element B, Element C]","{'Tm': 1.0, 'Ni': 1.94, 'Co': 0.12, 'B': 2.0, 'C': 1.0}",Other,5
Tm1Ni1.92Co0.16B2C1,4.4,Tm1 Ni1.92 Co0.16 B2 C1,"[Element Tm, Element Ni, Element Co, Element B, Element C]","{'Tm': 1.0, 'Ni': 1.92, 'Co': 0.16, 'B': 2.0, 'C': 1.0}",Other,5
Tm1Ni1.91Co0.18B2C1,3.2,Tm1 Ni1.91 Co0.18 B2 C1,"[Element Tm, Element Ni, Element Co, Element B, Element C]","{'Tm': 1.0, 'Ni': 1.91, 'Co': 0.18, 'B': 2.0, 'C': 1.0}",Other,5
Tm1Ni1.88Co0.24B2C1,1.6,Tm1 Ni1.88 Co0.24 B2 C1,"[Element Tm, Element Ni, Element Co, Element B, Element C]","{'Tm': 1.0, 'Ni': 1.88, 'Co': 0.24, 'B': 2.0, 'C': 1.0}",Other,5
Er1Ni0.199Co0.02B2C1,9.2,Er1 Ni0.199 Co0.02 B2 C1,"[Element Er, Element Ni, Element Co, Element B, Element C]","{'Er': 1.0, 'Ni': 0.199, 'Co': 0.02, 'B': 2.0, 'C': 1.0}",Other,5
Er1Ni0.973Co0.054B2C1,7.2,Er1 Ni0.973 Co0.054 B2 C1,"[Element Er, Element Ni, Element Co, Element B, Element C]","{'Er': 1.0, 'Ni': 0.973, 'Co': 0.054, 'B': 2.0, 'C': 1.0}",Other,5
Er1Ni1.96Co0.08B2C1,4.2,Er1 Ni1.96 Co0.08 B2 C1,"[Element Er, Element Ni, Element Co, Element B, Element C]","{'Er': 1.0, 'Ni': 1.96, 'Co': 0.08, 'B': 2.0, 'C': 1.0}",Other,5
Er1Ni1.955Co0.09B2C1,2.6,Er1 Ni1.955 Co0.09 B2 C1,"[Element Er, Element Ni, Element Co, Element B, Element C]","{'Er': 1.0, 'Ni': 1.955, 'Co': 0.09, 'B': 2.0, 'C': 1.0}",Other,5
Ho1Ni1.998Co0.004B2C1,7.2,Ho1 Ni1.998 Co0.004 B2 C1,"[Element Ho, Element Ni, Element Co, Element B, Element C]","{'Ho': 1.0, 'Ni': 1.998, 'Co': 0.004, 'B': 2.0, 'C': 1.0}",Other,5
Ho1Ni1.993Co0.014B2C1,5.0,Ho1 Ni1.993 Co0.014 B2 C1,"[Element Ho, Element Ni, Element Co, Element B, Element C]","{'Ho': 1.0, 'Ni': 1.993, 'Co': 0.014, 'B': 2.0, 'C': 1.0}",Other,5
Ho1Ni1.99Co0.02B2C1,4.8,Ho1 Ni1.99 Co0.02 B2 C1,"[Element Ho, Element Ni, Element Co, Element B, Element C]","{'Ho': 1.0, 'Ni': 1.99, 'Co': 0.02, 'B': 2.0, 'C': 1.0}",Other,5
Ho1Ni1.98Co0.04B2C1,3.7,Ho1 Ni1.98 Co0.04 B2 C1,"[Element Ho, Element Ni, Element Co, Element B, Element C]","{'Ho': 1.0, 'Ni': 1.98, 'Co': 0.04, 'B': 2.0, 'C': 1.0}",Other,5
Ho1Ni1.972Co0.056B2C1,2.4,Ho1 Ni1.972 Co0.056 B2 C1,"[Element Ho, Element Ni, Element Co, Element B, Element C]","{'Ho': 1.0, 'Ni': 1.972, 'Co': 0.056, 'B': 2.0, 'C': 1.0}",Other,5
Sc5Co4Si10,4.9,Sc5 Co4 Si10,"[Element Sc, Element Co, Element Si]","{'Sc': 5.0, 'Co': 4.0, 'Si': 10.0}",Other,3
Tb0.2Er0.8Ni2B2C1,7.1,Tb0.2 Er0.8 Ni2 B2 C1,"[Element Tb, Element Er, Element Ni, Element B, Element C]","{'Tb': 0.2, 'Er': 0.8, 'Ni': 2.0, 'B': 2.0, 'C': 1.0}",Other,5
Tb0.225Er0.775Ni2B2C1,5.9,Tb0.225 Er0.775 Ni2 B2 C1,"[Element Tb, Element Er, Element Ni, Element B, Element C]","{'Tb': 0.225, 'Er': 0.775, 'Ni': 2.0, 'B': 2.0, 'C': 1.0}",Other,5
Tb0.25Er0.75Ni2B2C1,4.9,Tb0.25 Er0.75 Ni2 B2 C1,"[Element Tb, Element Er, Element Ni, Element B, Element C]","{'Tb': 0.25, 'Er': 0.75, 'Ni': 2.0, 'B': 2.0, 'C': 1.0}",Other,5
Ce1.025Cu2Si2,0.6,Ce1.025 Cu2 Si2,"[Element Ce, Element Cu, Element Si]","{'Ce': 1.025, 'Cu': 2.0, 'Si': 2.0}",Other,3
Ce1Cu2.05Si2,0.7,Ce1 Cu2.05 Si2,"[Element Ce, Element Cu, Element Si]","{'Ce': 1.0, 'Cu': 2.05, 'Si': 2.0}",Other,3
Sn18.59Er4.41Rh6,1.0,Sn18.59 Er4.41 Rh6,"[Element Sn, Element Er, Element Rh]","{'Sn': 18.59, 'Er': 4.41, 'Rh': 6.0}",Other,3
Sn18.43Er4.57Rh6,0.97,Sn18.43 Er4.57 Rh6,"[Element Sn, Element Er, Element Rh]","{'Sn': 18.43, 'Er': 4.57, 'Rh': 6.0}",Other,3
Sn0.95In0.05Te1,1.2,Sn0.95 In0.05 Te1,"[Element Sn, Element In, Element Te]","{'Sn': 0.95, 'In': 0.05, 'Te': 1.0}",Other,3
Sn0.9405Ge0.0095In0.05Te1,1.61,Sn0.9405 Ge0.0095 In0.05 Te1,"[Element Sn, Element Ge, Element In, Element Te]","{'Sn': 0.9405, 'Ge': 0.0095, 'In': 0.05, 'Te': 1.0}",Other,4
Sn0.9215Ge0.0285In0.05Te1,1.74,Sn0.9215 Ge0.0285 In0.05 Te1,"[Element Sn, Element Ge, Element In, Element Te]","{'Sn': 0.9215, 'Ge': 0.0285, 'In': 0.05, 'Te': 1.0}",Other,4
Sn0.9025Ge0.0475In0.05Te1,1.72,Sn0.9025 Ge0.0475 In0.05 Te1,"[Element Sn, Element Ge, Element In, Element Te]","{'Sn': 0.9025, 'Ge': 0.0475, 'In': 0.05, 'Te': 1.0}",Other,4
Sn0.874Ge0.076In0.05Te1,1.64,Sn0.874 Ge0.076 In0.05 Te1,"[Element Sn, Element Ge, Element In, Element Te]","{'Sn': 0.874, 'Ge': 0.076, 'In': 0.05, 'Te': 1.0}",Other,4
Sn0.855Ge0.095In0.05Te1,1.48,Sn0.855 Ge0.095 In0.05 Te1,"[Element Sn, Element Ge, Element In, Element Te]","{'Sn': 0.855, 'Ge': 0.095, 'In': 0.05, 'Te': 1.0}",Other,4