chemical_formula,Tc,composition,elements,stoichiometry,Category,num_elements
Nb3Rh0.95Au0.05,2.52,Nb3 Rh0.95 Au0.05,"[Element Nb, Element Rh, Element Au]","{'Nb': 3.0, 'Rh': 0.95, 'Au': 0.05}",Other,3
Nb3Rh0.98Au0.02,2.53,Nb3 Rh0.98 Au0.02,"[Element Nb, Element Rh, Element Au]","{'Nb': 3.0, 'Rh': 0.98, 'Au': 0.02}",Other,3
Nb3Ge0.5Ga0.5,7.3,Nb3 Ge0.5 Ga0.5,"[Element Nb, Element Ge, Element Ga]","{'Nb': 3.0, 'Ge': 0.5, 'Ga': 0.5}",Other,3
Nb3Al0.39Ge0.61,7.3,Nb3 Al0.39 Ge0.61,"[Element Nb, Element Al, Element Ge]","{'Nb': 3.0, 'Al': 0.39, 'Ge': 0.61}",Other,3
Nb3Al0.5Ge0.5,12.6,Nb3 Al0.5 Ge0.5,"[Element Nb, Element Al, Element Ge]","{'Nb': 3.0, 'Al': 0.5, 'Ge': 0.5}",Other,3
Nb3Al0.55Ge0.45,11.7,Nb3 Al0.55 Ge0.45,"[Element Nb, Element Al, Element Ge]","{'Nb': 3.0, 'Al': 0.55, 'Ge': 0.45}",Other,3
Nb3Al0.62Ge0.38,17.2,Nb3 Al0.62 Ge0.38,"[Element Nb, Element Al, Element Ge]","{'Nb': 3.0, 'Al': 0.62, 'Ge': 0.38}",Other,3
Nb3Rh0.7Os0.3,1.7,Nb3 Rh0.7 Os0.3,"[Element Nb, Element Rh, Element Os]","{'Nb': 3.0, 'Rh': 0.7, 'Os': 0.3}",Other,3
Nb3Rh0.9Os0.1,2.3,Nb3 Rh0.9 Os0.1,"[Element Nb, Element Rh, Element Os]","{'Nb': 3.0, 'Rh': 0.9, 'Os': 0.1}",Other,3
Nb3Rh0.95Os0.05,2.39,Nb3 Rh0.95 Os0.05,"[Element Nb, Element Rh, Element Os]","{'Nb': 3.0, 'Rh': 0.95, 'Os': 0.05}",Other,3
Nb3Rh0.98Os0.02,2.42,Nb3 Rh0.98 Os0.02,"[Element Nb, Element Rh, Element Os]","{'Nb': 3.0, 'Rh': 0.98, 'Os': 0.02}",Other,3
Nb3Rh0.9Ru0.1,2.44,Nb3 Rh0.9 Ru0.1,"[Element Nb, Element Rh, Element Ru]","{'Nb': 3.0, 'Rh': 0.9, 'Ru': 0.1}",Other,3
Nb3Rh0.95Ru0.05,2.42,Nb3 Rh0.95 Ru0.05,"[Element Nb, Element Rh, Element Ru]","{'Nb': 3.0, 'Rh': 0.95, 'Ru': 0.05}",Other,3
Nb3Rh0.98Ru0.02,2.42,Nb3 Rh0.98 Ru0.02,"[Element Nb, Element Rh, Element Ru]","{'Nb': 3.0, 'Rh': 0.98, 'Ru': 0.02}",Other,3
Nb77.3Sn18.1Al2.3Ge2.3,13.0,Nb77.3 Sn18.1 Al2.3 Ge2.3,"[Element Nb, Element Sn, Element Al, Element Ge]","{'Nb': 77.3, 'Sn': 18.1, 'Al': 2.3, 'Ge': 2.3}",Other,4
Nb1Ta1V1Sn1,6.2,Nb1 Ta1 V1 Sn1,"[Element Nb, Element Ta, Element V, Element Sn]","{'Nb': 1.0, 'Ta': 1.0, 'V': 1.0, 'Sn': 1.0}",Other,4
Nb2Ta0.5V0.5Sn1,12.2,Nb2 Ta0.5 V0.5 Sn1,"[Element Nb, Element Ta, Element V, Element Sn]","{'Nb': 2.0, 'Ta': 0.5, 'V': 0.5, 'Sn': 1.0}",Other,4
Nb3Rh0.02Pt0.98,9.6,Nb3 Rh0.02 Pt0.98,"[Element Nb, Element Rh, Element Pt]","{'Nb': 3.0, 'Rh': 0.02, 'Pt': 0.98}",Other,3
Nb3Rh0.05Pt0.95,8.9,Nb3 Rh0.05 Pt0.95,"[Element Nb, Element Rh, Element Pt]","{'Nb': 3.0, 'Rh': 0.05, 'Pt': 0.95}",Other,3
Nb3Rh0.1Pt0.9,7.9,Nb3 Rh0.1 Pt0.9,"[Element Nb, Element Rh, Element Pt]","{'Nb': 3.0, 'Rh': 0.1, 'Pt': 0.9}",Other,3
Nb3Rh0.3Pt0.7,7.4,Nb3 Rh0.3 Pt0.7,"[Element Nb, Element Rh, Element Pt]","{'Nb': 3.0, 'Rh': 0.3, 'Pt': 0.7}",Other,3
Nb3Rh0.5Pt0.5,6.25,Nb3 Rh0.5 Pt0.5,"[Element Nb, Element Rh, Element Pt]","{'Nb': 3.0, 'Rh': 0.5, 'Pt': 0.5}",Other,3
Nb3Rh0.7Pt0.3,5.1,Nb3 Rh0.7 Pt0.3,"[Element Nb, Element Rh, Element Pt]","{'Nb': 3.0, 'Rh': 0.7, 'Pt': 0.3}",Other,3
Nb3Rh0.9Pt0.1,2.8,Nb3 Rh0.9 Pt0.1,"[Element Nb, Element Rh, Element Pt]","{'Nb': 3.0, 'Rh': 0.9, 'Pt': 0.1}",Other,3
Nb3Rh0.95Pt0.05,2.53,Nb3 Rh0.95 Pt0.05,"[Element Nb, Element Rh, Element Pt]","{'Nb': 3.0, 'Rh': 0.95, 'Pt': 0.05}",Other,3
Nb3Rh0.98Pt0.02,2.52,Nb3 Rh0.98 Pt0.02,"[Element Nb, Element Rh, Element Pt]","{'Nb': 3.0, 'Rh': 0.98, 'Pt': 0.02}",Other,3
Nb78.5Sn2.2Al9.6Ge9.6,12.7,Nb78.5 Sn2.2 Al9.6 Ge9.6,"[Element Nb, Element Sn, Element Al, Element Ge]","{'Nb': 78.5, 'Sn': 2.2, 'Al': 9.6, 'Ge': 9.6}",Other,4
Nb79.1Sn9.4Al2.1Ge9.4,8.2,Nb79.1 Sn9.4 Al2.1 Ge9.4,"[Element Nb, Element Sn, Element Al, Element Ge]","{'Nb': 79.1, 'Sn': 9.4, 'Al': 2.1, 'Ge': 9.4}",Other,4
Nb78.5Sn2.2Al12.8Ge6.5,17.0,Nb78.5 Sn2.2 Al12.8 Ge6.5,"[Element Nb, Element Sn, Element Al, Element Ge]","{'Nb': 78.5, 'Sn': 2.2, 'Al': 12.8, 'Ge': 6.5}",Other,4
Nb77.5Sn5.6Al11.3Ge5.6,15.2,Nb77.5 Sn5.6 Al11.3 Ge5.6,"[Element Nb, Element Sn, Element Al, Element Ge]","{'Nb': 77.5, 'Sn': 5.6, 'Al': 11.3, 'Ge': 5.6}",Other,4
Nb78.1Sn7.3Al7.3Ge7.3,12.5,Nb78.1 Sn7.3 Al7.3 Ge7.3,"[Element Nb, Element Sn, Element Al, Element Ge]","{'Nb': 78.1, 'Sn': 7.3, 'Al': 7.3, 'Ge': 7.3}",Other,4
Nb77.9Sn11.1Al5.5Ge5.5,13.0,Nb77.9 Sn11.1 Al5.5 Ge5.5,"[Element Nb, Element Sn, Element Al, Element Ge]","{'Nb': 77.9, 'Sn': 11.1, 'Al': 5.5, 'Ge': 5.5}",Other,4
Nb76.3Sn7.1Al14.3Ge2.3,13.9,Nb76.3 Sn7.1 Al14.3 Ge2.3,"[Element Nb, Element Sn, Element Al, Element Ge]","{'Nb': 76.3, 'Sn': 7.1, 'Al': 14.3, 'Ge': 2.3}",Other,4
Nb76.3Sn10.5Ge2.3Al10.9,14.4,Nb76.3 Sn10.5 Ge2.3 Al10.9,"[Element Nb, Element Sn, Element Ge, Element Al]","{'Nb': 76.3, 'Sn': 10.5, 'Ge': 2.3, 'Al': 10.9}",Other,4
Nb77Sn13.8Al6.9Ge2.3,13.3,Nb77 Sn13.8 Al6.9 Ge2.3,"[Element Nb, Element Sn, Element Al, Element Ge]","{'Nb': 77.0, 'Sn': 13.8, 'Al': 6.9, 'Ge': 2.3}",Other,4
Ag2F1,0.066,Ag2 F1,"[Element Ag, Element F]","{'Ag': 2.0, 'F': 1.0}",Other,2
Si21.75V69.43,16.2,Si21.75 V69.43,"[Element Si, Element V]","{'Si': 21.75, 'V': 69.43}",Other,2
Si23.27V75.15,15.94,Si23.27 V75.15,"[Element Si, Element V]","{'Si': 23.27, 'V': 75.15}",Other,2
Si22.5V75,16.4,Si22.5 V75,"[Element Si, Element V]","{'Si': 22.5, 'V': 75.0}",Other,2
Si23.8V74.65,16.5,Si23.8 V74.65,"[Element Si, Element V]","{'Si': 23.8, 'V': 74.65}",Other,2
Nb79.5Sn2.1Al6.1Ge12.3,9.4,Nb79.5 Sn2.1 Al6.1 Ge12.3,"[Element Nb, Element Sn, Element Al, Element Ge]","{'Nb': 79.5, 'Sn': 2.1, 'Al': 6.1, 'Ge': 12.3}",Other,4
Nb79.7Sn6.1Al2Ge12.2,7.15,Nb79.7 Sn6.1 Al2 Ge12.2,"[Element Nb, Element Sn, Element Al, Element Ge]","{'Nb': 79.7, 'Sn': 6.1, 'Al': 2.0, 'Ge': 12.2}",Other,4
Ag0.1In0.9Te1,1.2,Ag0.1 In0.9 Te1,"[Element Ag, Element In, Element Te]","{'Ag': 0.1, 'In': 0.9, 'Te': 1.0}",Other,3
Ag0.03Tl0.97,2.67,Ag0.03 Tl0.97,"[Element Ag, Element Tl]","{'Ag': 0.03, 'Tl': 0.97}",Other,2
Ag0.8Ga0.2,6.5,Ag0.8 Ga0.2,"[Element Ag, Element Ga]","{'Ag': 0.8, 'Ga': 0.2}",Other,2
Al0.5Ge0.5Nb1,12.6,Al0.5 Ge0.5 Nb1,"[Element Al, Element Ge, Element Nb]","{'Al': 0.5, 'Ge': 0.5, 'Nb': 1.0}",Other,3
Al0.131Cr0.088V0.781,1.46,Al0.131 Cr0.088 V0.781,"[Element Al, Element Cr, Element V]","{'Al': 0.131, 'Cr': 0.088, 'V': 0.781}",Other,3
Ag0.2In0.8Te1,0.77,Ag0.2 In0.8 Te1,"[Element Ag, Element In, Element Te]","{'Ag': 0.2, 'In': 0.8, 'Te': 1.0}",Other,3
Al1Pb1,1.2,Al1 Pb1,"[Element Al, Element Pb]","{'Al': 1.0, 'Pb': 1.0}",Other,2
Al2Mg2,0.84,Al2 Mg2,"[Element Al, Element Mg]","{'Al': 2.0, 'Mg': 2.0}",Other,2
As1Rh1.4,0.03,As1 Rh1.4,"[Element As, Element Rh]","{'As': 1.0, 'Rh': 1.4}",Other,2
As0.5In1Te0.5,0.44,As0.5 In1 Te0.5,"[Element As, Element In, Element Te]","{'As': 0.5, 'In': 1.0, 'Te': 0.5}",Other,3
As0.33In1Te0.67,0.85,As0.33 In1 Te0.67,"[Element As, Element In, Element Te]","{'As': 0.33, 'In': 1.0, 'Te': 0.67}",Other,3
Au0.4Ge0.6,0.32,Au0.4 Ge0.6,"[Element Au, Element Ge]","{'Au': 0.4, 'Ge': 0.6}",Other,2
As2Sn3,3.5,As2 Sn3,"[Element As, Element Sn]","{'As': 2.0, 'Sn': 3.0}",Other,2
B6La1,5.7,B6 La1,"[Element B, Element La]","{'B': 6.0, 'La': 1.0}",Other,2
B0.03C0.51Mo0.47,12.5,B0.03 C0.51 Mo0.47,"[Element B, Element C, Element Mo]","{'B': 0.03, 'C': 0.51, 'Mo': 0.47}",Other,3
Au1V3,0.74,Au1 V3,"[Element Au, Element V]","{'Au': 1.0, 'V': 3.0}",Other,2
B0.3Ru0.7,2.58,B0.3 Ru0.7,"[Element B, Element Ru]","{'B': 0.3, 'Ru': 0.7}",Other,2
Be1W1,4.1,Be1 W1,"[Element Be, Element W]","{'Be': 1.0, 'W': 1.0}",Other,2
Be9.8Re0.02,9.5,Be9.8 Re0.02,"[Element Be, Element Re]","{'Be': 9.8, 'Re': 0.02}",Other,2
Bi0.34In0.66,4.0,Bi0.34 In0.66,"[Element Bi, Element In]","{'Bi': 0.34, 'In': 0.66}",Other,2
Bi0.15In0.85,5.3,Bi0.15 In0.85,"[Element Bi, Element In]","{'Bi': 0.15, 'In': 0.85}",Other,2
Bi10.1In0.9,5.05,Bi10.1 In0.9,"[Element Bi, Element In]","{'Bi': 10.1, 'In': 0.9}",Other,2
Bi0.5Pb0.25Sn0.26,8.5,Bi0.5 Pb0.25 Sn0.26,"[Element Bi, Element Pb, Element Sn]","{'Bi': 0.5, 'Pb': 0.25, 'Sn': 0.26}",Other,3
Bi0.5Pb0.31Sn0.19,8.5,Bi0.5 Pb0.31 Sn0.19,"[Element Bi, Element Pb, Element Sn]","{'Bi': 0.5, 'Pb': 0.31, 'Sn': 0.19}",Other,3
Bi0.06Pb0.95,7.35,Bi0.06 Pb0.95,"[Element Bi, Element Pb]","{'Bi': 0.06, 'Pb': 0.95}",Other,2
C1Hf0.4Nb0.6,5.6,C1 Hf0.4 Nb0.6,"[Element C, Element Hf, Element Nb]","{'C': 1.0, 'Hf': 0.4, 'Nb': 0.6}",Other,3
C1Hf0.5Nb0.5,4.8,C1 Hf0.5 Nb0.5,"[Element C, Element Hf, Element Nb]","{'C': 1.0, 'Hf': 0.5, 'Nb': 0.5}",Other,3
C1Hf0.6Nb0.4,4.5,C1 Hf0.6 Nb0.4,"[Element C, Element Hf, Element Nb]","{'C': 1.0, 'Hf': 0.6, 'Nb': 0.4}",Other,3
C1Hf0.7Nb0.3,6.1,C1 Hf0.7 Nb0.3,"[Element C, Element Hf, Element Nb]","{'C': 1.0, 'Hf': 0.7, 'Nb': 0.3}",Other,3
C1Hf0.25Mo0.75,6.6,C1 Hf0.25 Mo0.75,"[Element C, Element Hf, Element Mo]","{'C': 1.0, 'Hf': 0.25, 'Mo': 0.75}",Other,3
C1Hf0.3Mo0.7,5.5,C1 Hf0.3 Mo0.7,"[Element C, Element Hf, Element Mo]","{'C': 1.0, 'Hf': 0.3, 'Mo': 0.7}",Other,3
C1Hf0.5Mo0.5,3.4,C1 Hf0.5 Mo0.5,"[Element C, Element Hf, Element Mo]","{'C': 1.0, 'Hf': 0.5, 'Mo': 0.5}",Other,3
C1Mo0.5Ta0.5,7.7,C1 Mo0.5 Ta0.5,"[Element C, Element Mo, Element Ta]","{'C': 1.0, 'Mo': 0.5, 'Ta': 0.5}",Other,3
C1Mo0.2Ta0.8,7.5,C1 Mo0.2 Ta0.8,"[Element C, Element Mo, Element Ta]","{'C': 1.0, 'Mo': 0.2, 'Ta': 0.8}",Other,3
C0.6Mo4.8Si3,7.6,C0.6 Mo4.8 Si3,"[Element C, Element Mo, Element Si]","{'C': 0.6, 'Mo': 4.8, 'Si': 3.0}",Other,3
C1K1,0.55,C1 K1,"[Element C, Element K]","{'C': 1.0, 'K': 1.0}",Other,2
C1Hf0.9Ta0.1,5.0,C1 Hf0.9 Ta0.1,"[Element C, Element Hf, Element Ta]","{'C': 1.0, 'Hf': 0.9, 'Ta': 0.1}",Other,3
C1Hf0.8Nb0.8,7.8,C1 Hf0.8 Nb0.8,"[Element C, Element Hf, Element Nb]","{'C': 1.0, 'Hf': 0.8, 'Nb': 0.8}",Other,3
C1Hf0.25Nb0.75,7.0,C1 Hf0.25 Nb0.75,"[Element C, Element Hf, Element Nb]","{'C': 1.0, 'Hf': 0.25, 'Nb': 0.75}",Other,3
C1Nb0.6W0.4,12.5,C1 Nb0.6 W0.4,"[Element C, Element Nb, Element W]","{'C': 1.0, 'Nb': 0.6, 'W': 0.4}",Other,3
C0.7Nb0.3,6.0,C0.7 Nb0.3,"[Element C, Element Nb]","{'C': 0.7, 'Nb': 0.3}",Other,2
C0.984Nb1,9.8,C0.984 Nb1,"[Element C, Element Nb]","{'C': 0.984, 'Nb': 1.0}",Other,2
C0.1N0.9Nb1,8.5,C0.1 N0.9 Nb1,"[Element C, Element N, Element Nb]","{'C': 0.1, 'N': 0.9, 'Nb': 1.0}",Other,3
C1Mo0.8Ta0.2,8.7,C1 Mo0.8 Ta0.2,"[Element C, Element Mo, Element Ta]","{'C': 1.0, 'Mo': 0.8, 'Ta': 0.2}",Other,3
C1Mo0.75Ta0.25,8.5,C1 Mo0.75 Ta0.25,"[Element C, Element Mo, Element Ta]","{'C': 1.0, 'Mo': 0.75, 'Ta': 0.25}",Other,3
C1W1,1.0,C1 W1,"[Element C, Element W]","{'C': 1.0, 'W': 1.0}",Other,2
C1Ti0.5W0.5,6.7,C1 Ti0.5 W0.5,"[Element C, Element Ti, Element W]","{'C': 1.0, 'Ti': 0.5, 'W': 0.5}",Other,3
C0.848Ta1,2.04,C0.848 Ta1,"[Element C, Element Ta]","{'C': 0.848, 'Ta': 1.0}",Other,2
C0.987Ta1,9.7,C0.987 Ta1,"[Element C, Element Ta]","{'C': 0.987, 'Ta': 1.0}",Other,2
C1Re0.06W1,5.0,C1 Re0.06 W1,"[Element C, Element Re, Element W]","{'C': 1.0, 'Re': 0.06, 'W': 1.0}",Other,3
C1Re0.01W1,1.3,C1 Re0.01 W1,"[Element C, Element Re, Element W]","{'C': 1.0, 'Re': 0.01, 'W': 1.0}",Other,3
Ca1Rh2,6.4,Ca1 Rh2,"[Element Ca, Element Rh]","{'Ca': 1.0, 'Rh': 2.0}",Other,2
Ca1Pb1,7.0,Ca1 Pb1,"[Element Ca, Element Pb]","{'Ca': 1.0, 'Pb': 1.0}",Other,2
Ca0.1O3W1,1.4,Ca0.1 O3 W1,"[Element Ca, Element O, Element W]","{'Ca': 0.1, 'O': 3.0, 'W': 1.0}",Other,3
Co1Lu3,0.35,Co1 Lu3,"[Element Co, Element Lu]","{'Co': 1.0, 'Lu': 3.0}",Other,2
Ce0.005La0.995,4.6,Ce0.005 La0.995,"[Element Ce, Element La]","{'Ce': 0.005, 'La': 0.995}",Other,2
Cr0.6Ir0.4,0.4,Cr0.6 Ir0.4,"[Element Cr, Element Ir]","{'Cr': 0.6, 'Ir': 0.4}",Other,2
Co0.3Sc0.7,0.35,Co0.3 Sc0.7,"[Element Co, Element Sc]","{'Co': 0.3, 'Sc': 0.7}",Other,2
Cr0.1Ru0.9,0.34,Cr0.1 Ru0.9,"[Element Cr, Element Ru]","{'Cr': 0.1, 'Ru': 0.9}",Other,2
Cr2Ru1,2.02,Cr2 Ru1,"[Element Cr, Element Ru]","{'Cr': 2.0, 'Ru': 1.0}",Other,2
Cr3Ru1,3.3,Cr3 Ru1,"[Element Cr, Element Ru]","{'Cr': 3.0, 'Ru': 1.0}",Other,2
Cr0.8Rh0.2,0.5,Cr0.8 Rh0.2,"[Element Cr, Element Rh]","{'Cr': 0.8, 'Rh': 0.2}",Other,2
Cr0.72Ir0.28,0.83,Cr0.72 Ir0.28,"[Element Cr, Element Ir]","{'Cr': 0.72, 'Ir': 0.28}",Other,2
Cr0.7Ir0.3,0.76,Cr0.7 Ir0.3,"[Element Cr, Element Ir]","{'Cr': 0.7, 'Ir': 0.3}",Other,2
Cr0.65Ir0.35,0.59,Cr0.65 Ir0.35,"[Element Cr, Element Ir]","{'Cr': 0.65, 'Ir': 0.35}",Other,2
Cu0.15In0.85,3.75,Cu0.15 In0.85,"[Element Cu, Element In]","{'Cu': 0.15, 'In': 0.85}",Other,2
Ga0.7Pt0.3,2.9,Ga0.7 Pt0.3,"[Element Ga, Element Pt]","{'Ga': 0.7, 'Pt': 0.3}",Other,2
Ge0.29Nb0.71,6.0,Ge0.29 Nb0.71,"[Element Ge, Element Nb]","{'Ge': 0.29, 'Nb': 0.71}",Other,2
Ga1V4.5,9.15,Ga1 V4.5,"[Element Ga, Element V]","{'Ga': 1.0, 'V': 4.5}",Other,2
Ga1V2.1,6.3,Ga1 V2.1,"[Element Ga, Element V]","{'Ga': 1.0, 'V': 2.1}",Other,2
H0.12Ta0.88,2.81,H0.12 Ta0.88,"[Element H, Element Ta]","{'H': 0.12, 'Ta': 0.88}",Hydrides,2
H0.05Nb0.95,7.83,H0.05 Nb0.95,"[Element H, Element Nb]","{'H': 0.05, 'Nb': 0.95}",Hydrides,2
H0.1Nb0.9,7.38,H0.1 Nb0.9,"[Element H, Element Nb]","{'H': 0.1, 'Nb': 0.9}",Hydrides,2
Hf0.99Rh0.01,0.85,Hf0.99 Rh0.01,"[Element Hf, Element Rh]","{'Hf': 0.99, 'Rh': 0.01}",Other,2
Hf0.76Nb0.25,4.2,Hf0.76 Nb0.25,"[Element Hf, Element Nb]","{'Hf': 0.76, 'Nb': 0.25}",Other,2
Hf1N0.989,6.6,Hf1 N0.989,"[Element Hf, Element N]","{'Hf': 1.0, 'N': 0.989}",Other,2
H0.04Ta0.96,3.62,H0.04 Ta0.96,"[Element H, Element Ta]","{'H': 0.04, 'Ta': 0.96}",Hydrides,2
H0.08Ta0.92,3.26,H0.08 Ta0.92,"[Element H, Element Ta]","{'H': 0.08, 'Ta': 0.92}",Hydrides,2
Hg5Tl2,3.86,Hg5 Tl2,"[Element Hg, Element Tl]","{'Hg': 5.0, 'Tl': 2.0}",Other,2
Hg4K1,3.27,Hg4 K1,"[Element Hg, Element K]","{'Hg': 4.0, 'K': 1.0}",Other,2
In0.78Tl0.22,3.18,In0.78 Tl0.22,"[Element In, Element Tl]","{'In': 0.78, 'Tl': 0.22}",Other,2
In0.62Tl0.38,2.76,In0.62 Tl0.38,"[Element In, Element Tl]","{'In': 0.62, 'Tl': 0.38}",Other,2
In0.8Tl0.2,3.223,In0.8 Tl0.2,"[Element In, Element Tl]","{'In': 0.8, 'Tl': 0.2}",Other,2
In1Te1.002,3.5,In1 Te1.002,"[Element In, Element Te]","{'In': 1.0, 'Te': 1.002}",Other,2
In3Sn1,5.5,In3 Sn1,"[Element In, Element Sn]","{'In': 3.0, 'Sn': 1.0}",Other,2
In1Pb1,0.7,In1 Pb1,"[Element In, Element Pb]","{'In': 1.0, 'Pb': 1.0}",Other,2
In0.98Pb0.02,3.45,In0.98 Pb0.02,"[Element In, Element Pb]","{'In': 0.98, 'Pb': 0.02}",Other,2
In0.95Pb0.05,3.6,In0.95 Pb0.05,"[Element In, Element Pb]","{'In': 0.95, 'Pb': 0.05}",Other,2
Ir0.4Nb0.6,9.8,Ir0.4 Nb0.6,"[Element Ir, Element Nb]","{'Ir': 0.4, 'Nb': 0.6}",Other,2
In0.69Tl0.31,2.98,In0.69 Tl0.31,"[Element In, Element Tl]","{'In': 0.69, 'Tl': 0.31}",Other,2
Ir0.265O0.035Ti0.65,2.3,Ir0.265 O0.035 Ti0.65,"[Element Ir, Element O, Element Ti]","{'Ir': 0.265, 'O': 0.035, 'Ti': 0.65}",Other,3
Ir0.287O0.14Ti0.578,5.5,Ir0.287 O0.14 Ti0.578,"[Element Ir, Element O, Element Ti]","{'Ir': 0.287, 'O': 0.14, 'Ti': 0.578}",Other,3
Ir1Nb1,7.9,Ir1 Nb1,"[Element Ir, Element Nb]","{'Ir': 1.0, 'Nb': 1.0}",Other,2
Ir1V2,1.39,Ir1 V2,"[Element Ir, Element V]","{'Ir': 1.0, 'V': 2.0}",Other,2
K0.4O3W1,1.5,K0.4 O3 W1,"[Element K, Element O, Element W]","{'K': 0.4, 'O': 3.0, 'W': 1.0}",Other,3
K0.27O3W1,0.5,K0.27 O3 W1,"[Element K, Element O, Element W]","{'K': 0.27, 'O': 3.0, 'W': 1.0}",Other,3
La3Sc4,8.6,La3 Sc4,"[Element La, Element Sc]","{'La': 3.0, 'Sc': 4.0}",Other,2
La0.28Pt0.72,0.54,La0.28 Pt0.72,"[Element La, Element Pt]","{'La': 0.28, 'Pt': 0.72}",Other,2
Mo0.2Ru0.8,1.66,Mo0.2 Ru0.8,"[Element Mo, Element Ru]","{'Mo': 0.2, 'Ru': 0.8}",Other,2
Mo0.6Re0.395,10.6,Mo0.6 Re0.395,"[Element Mo, Element Re]","{'Mo': 0.6, 'Re': 0.395}",Other,2
Mo0.5Pb0.5,3.52,Mo0.5 Pb0.5,"[Element Mo, Element Pb]","{'Mo': 0.5, 'Pb': 0.5}",Other,2
N0.824Nb1,14.4,N0.824 Nb1,"[Element N, Element Nb]","{'N': 0.824, 'Nb': 1.0}",Other,2
N0.988Nb1,14.9,N0.988 Nb1,"[Element N, Element Nb]","{'N': 0.988, 'Nb': 1.0}",Other,2
Mo0.025Ti0.975,1.8,Mo0.025 Ti0.975,"[Element Mo, Element Ti]","{'Mo': 0.025, 'Ti': 0.975}",Other,2
Mo0.04Ti0.96,2.0,Mo0.04 Ti0.96,"[Element Mo, Element Ti]","{'Mo': 0.04, 'Ti': 0.96}",Other,2
Mo0.913Ti0.087,2.95,Mo0.913 Ti0.087,"[Element Mo, Element Ti]","{'Mo': 0.913, 'Ti': 0.087}",Other,2
Mo3Si1.3,1.3,Mo3 Si1.3,"[Element Mo, Element Si]","{'Mo': 3.0, 'Si': 1.3}",Other,2
Na0.28Pb0.72,7.2,Na0.28 Pb0.72,"[Element Na, Element Pb]","{'Na': 0.28, 'Pb': 0.72}",Other,2
Na0.28O3W1,0.56,Na0.28 O3 W1,"[Element Na, Element O, Element W]","{'Na': 0.28, 'O': 3.0, 'W': 1.0}",Other,3
N0.82V1,2.9,N0.82 V1,"[Element N, Element V]","{'N': 0.82, 'V': 1.0}",Other,2
N0.6Ti1,1.17,N0.6 Ti1,"[Element N, Element Ti]","{'N': 0.6, 'Ti': 1.0}",Other,2
N0.7Nb1,11.3,N0.7 Nb1,"[Element N, Element Nb]","{'N': 0.7, 'Nb': 1.0}",Other,2
Nb5Pt3,3.73,Nb5 Pt3,"[Element Nb, Element Pt]","{'Nb': 5.0, 'Pt': 3.0}",Other,2
Nb0.88V0.12,5.7,Nb0.88 V0.12,"[Element Nb, Element V]","{'Nb': 0.88, 'V': 0.12}",Other,2
Ni0.3Th0.7,1.98,Ni0.3 Th0.7,"[Element Ni, Element Th]","{'Ni': 0.3, 'Th': 0.7}",Other,2
Os1W3,3.0,Os1 W3,"[Element Os, Element W]","{'Os': 1.0, 'W': 3.0}",Other,2
Pb1Tl0.17,6.73,Pb1 Tl0.17,"[Element Pb, Element Tl]","{'Pb': 1.0, 'Tl': 0.17}",Other,2
Pb1Tl0.27,6.43,Pb1 Tl0.27,"[Element Pb, Element Tl]","{'Pb': 1.0, 'Tl': 0.27}",Other,2
Pb1Te1,5.24,Pb1 Te1,"[Element Pb, Element Te]","{'Pb': 1.0, 'Te': 1.0}",Other,2
P1Rh2,1.3,P1 Rh2,"[Element P, Element Rh]","{'P': 1.0, 'Rh': 2.0}",Other,2
P1Rh1,1.22,P1 Rh1,"[Element P, Element Rh]","{'P': 1.0, 'Rh': 1.0}",Other,2
Pb0.9Pt0.1Te2,1.65,Pb0.9 Pt0.1 Te2,"[Element Pb, Element Pt, Element Te]","{'Pb': 0.9, 'Pt': 0.1, 'Te': 2.0}",Other,3
Pb1Tl0.04,7.06,Pb1 Tl0.04,"[Element Pb, Element Tl]","{'Pb': 1.0, 'Tl': 0.04}",Other,2
Pb1Tl0.075,6.98,Pb1 Tl0.075,"[Element Pb, Element Tl]","{'Pb': 1.0, 'Tl': 0.075}",Other,2
Pb1Tl0.12,6.88,Pb1 Tl0.12,"[Element Pb, Element Tl]","{'Pb': 1.0, 'Tl': 0.12}",Other,2
Pt1V3.5,1.26,Pt1 V3.5,"[Element Pt, Element V]","{'Pt': 1.0, 'V': 3.5}",Other,2
Pt1V2.5,1.36,Pt1 V2.5,"[Element Pt, Element V]","{'Pt': 1.0, 'V': 2.5}",Other,2
Re24Ti6,6.6,Re24 Ti6,"[Element Re, Element Ti]","{'Re': 24.0, 'Ti': 6.0}",Other,2
Rh1V3,0.38,Rh1 V3,"[Element Rh, Element V]","{'Rh': 1.0, 'V': 3.0}",Other,2
Ru0.1Ti0.9,3.5,Ru0.1 Ti0.9,"[Element Ru, Element Ti]","{'Ru': 0.1, 'Ti': 0.9}",Other,2
Ru0.05Ti0.95,2.5,Ru0.05 Ti0.95,"[Element Ru, Element Ti]","{'Ru': 0.05, 'Ti': 0.95}",Other,2
Si10.9V3C0.1,16.4,Si10.9 V3 C0.1,"[Element Si, Element V, Element C]","{'Si': 10.9, 'V': 3.0, 'C': 0.1}",Other,3
Si10.9V3B0.1,15.8,Si10.9 V3 B0.1,"[Element Si, Element V, Element B]","{'Si': 10.9, 'V': 3.0, 'B': 0.1}",Other,3
Si10.9V3Al0.1,14.05,Si10.9 V3 Al0.1,"[Element Si, Element V, Element Al]","{'Si': 10.9, 'V': 3.0, 'Al': 0.1}",Other,3
Sb0.01V0.99,3.76,Sb0.01 V0.99,"[Element Sb, Element V]","{'Sb': 0.01, 'V': 0.99}",Other,2
Sb2Tl7,5.2,Sb2 Tl7,"[Element Sb, Element Tl]","{'Sb': 2.0, 'Tl': 7.0}",Other,2
Sn0.174Ta0.826,6.5,Sn0.174 Ta0.826,"[Element Sn, Element Ta]","{'Sn': 0.174, 'Ta': 0.826}",Other,2
Mo0.3Si1,11.7,Mo0.3 Si1,"[Element Mo, Element Si]","{'Mo': 0.3, 'Si': 1.0}",Other,2
Tc0.5W0.5,7.52,Tc0.5 W0.5,"[Element Tc, Element W]","{'Tc': 0.5, 'W': 0.5}",Other,2
Tc0.1W0.9,1.25,Tc0.1 W0.9,"[Element Tc, Element W]","{'Tc': 0.1, 'W': 0.9}",Other,2
Ta0.8W0.2,1.2,Ta0.8 W0.2,"[Element Ta, Element W]","{'Ta': 0.8, 'W': 0.2}",Other,2
Ta0.05V0.095,4.3,Ta0.05 V0.095,"[Element Ta, Element V]","{'Ta': 0.05, 'V': 0.095}",Other,2
Ta0.05Ti0.95,2.9,Ta0.05 Ti0.95,"[Element Ta, Element Ti]","{'Ta': 0.05, 'Ti': 0.95}",Other,2
Ta0.025Ti0.975,1.3,Ta0.025 Ti0.975,"[Element Ta, Element Ti]","{'Ta': 0.025, 'Ti': 0.975}",Other,2
Sn0.02V0.98,2.87,Sn0.02 V0.98,"[Element Sn, Element V]","{'Sn': 0.02, 'V': 0.98}",Other,2
Bi0.56Pb0.44,8.8,Bi0.56 Pb0.44,"[Element Bi, Element Pb]","{'Bi': 0.56, 'Pb': 0.44}",Other,2
Ga1V1.95,5.3,Ga1 V1.95,"[Element Ga, Element V]","{'Ga': 1.0, 'V': 1.95}",Other,2
In0.94Pb0.06,3.9,In0.94 Pb0.06,"[Element In, Element Pb]","{'In': 0.94, 'Pb': 0.06}",Other,2
In0.96Pb0.04,3.68,In0.96 Pb0.04,"[Element In, Element Pb]","{'In': 0.96, 'Pb': 0.04}",Other,2
Hg0.15Pb0.85,6.75,Hg0.15 Pb0.85,"[Element Hg, Element Pb]","{'Hg': 0.15, 'Pb': 0.85}",Other,2
Mo0.913Ti0.037,2.95,Mo0.913 Ti0.037,"[Element Mo, Element Ti]","{'Mo': 0.913, 'Ti': 0.037}",Other,2
Mo0.5Re0.395,10.6,Mo0.5 Re0.395,"[Element Mo, Element Re]","{'Mo': 0.5, 'Re': 0.395}",Other,2
Nb1C0.9N0.1,16.97,Nb1 C0.9 N0.1,"[Element Nb, Element C, Element N]","{'Nb': 1.0, 'C': 0.9, 'N': 0.1}",Other,3