chemical_formula,Tc,composition,elements,stoichiometry,Category,num_elements
Ba1Fe2As2,29.0,Ba1 Fe2 As2,"[Element Ba, Element Fe, Element As]","{'Ba': 1.0, 'Fe': 2.0, 'As': 2.0}",Fe-based,3
Sr1Fe2As2,27.0,Sr1 Fe2 As2,"[Element Sr, Element Fe, Element As]","{'Sr': 1.0, 'Fe': 2.0, 'As': 2.0}",Fe-based,3
Tb0.9Th0.1Fe1As1O1,45.0,Tb0.9 Th0.1 Fe1 As1 O1,"[Element Tb, Element Th, Element Fe, Element As, Element O]","{'Tb': 0.9, 'Th': 0.1, 'Fe': 1.0, 'As': 1.0, 'O': 1.0}",Fe-based,5
Tb0.8Th0.2Fe1As1O1,52.0,Tb0.8 Th0.2 Fe1 As1 O1,"[Element Tb, Element Th, Element Fe, Element As, Element O]","{'Tb': 0.8, 'Th': 0.2, 'Fe': 1.0, 'As': 1.0, 'O': 1.0}",Fe-based,5
Sr1Fe1.7Co0.3As2,13.2,Sr1 Fe1.7 Co0.3 As2,"[Element Sr, Element Fe, Element Co, Element As]","{'Sr': 1.0, 'Fe': 1.7, 'Co': 0.3, 'As': 2.0}",Fe-based,4
Pr0.88La1Ce0.12Cu1O3.908,27.0,Pr0.88 La1 Ce0.12 Cu1 O3.908,"[Element Pr, Element La, Element Ce, Element Cu, Element O]","{'Pr': 0.88, 'La': 1.0, 'Ce': 0.12, 'Cu': 1.0, 'O': 3.908}",Cuprates,5
Pr0.88La1Ce0.12Cu1O3.934,24.0,Pr0.88 La1 Ce0.12 Cu1 O3.934,"[Element Pr, Element La, Element Ce, Element Cu, Element O]","{'Pr': 0.88, 'La': 1.0, 'Ce': 0.12, 'Cu': 1.0, 'O': 3.934}",Cuprates,5
Pr0.88La1Ce0.12Cu1O3.947,22.0,Pr0.88 La1 Ce0.12 Cu1 O3.947,"[Element Pr, Element La, Element Ce, Element Cu, Element O]","{'Pr': 0.88, 'La': 1.0, 'Ce': 0.12, 'Cu': 1.0, 'O': 3.947}",Cuprates,5
Mo1Sr2Ho1Cu2O8,27.0,Mo1 Sr2 Ho1 Cu2 O8,"[Element Mo, Element Sr, Element Ho, Element Cu, Element O]","{'Mo': 1.0, 'Sr': 2.0, 'Ho': 1.0, 'Cu': 2.0, 'O': 8.0}",Cuprates,5
K0.2Sr0.8Fe2As2,13.0,K0.2 Sr0.8 Fe2 As2,"[Element K, Element Sr, Element Fe, Element As]","{'K': 0.2, 'Sr': 0.8, 'Fe': 2.0, 'As': 2.0}",Fe-based,4
K0.7Sr0.3Fe2As2,12.2,K0.7 Sr0.3 Fe2 As2,"[Element K, Element Sr, Element Fe, Element As]","{'K': 0.7, 'Sr': 0.3, 'Fe': 2.0, 'As': 2.0}",Fe-based,4
Fe1Se0.8,10.3,Fe1 Se0.8,"[Element Fe, Element Se]","{'Fe': 1.0, 'Se': 0.8}",Fe-based,2
Fe1Se0.779Te0.041,8.12,Fe1 Se0.779 Te0.041,"[Element Fe, Element Se, Element Te]","{'Fe': 1.0, 'Se': 0.779, 'Te': 0.041}",Fe-based,3
Fe1Se0.656Te0.164,10.7,Fe1 Se0.656 Te0.164,"[Element Fe, Element Se, Element Te]","{'Fe': 1.0, 'Se': 0.656, 'Te': 0.164}",Fe-based,3
Fe1Se0.574Te0.246,10.01,Fe1 Se0.574 Te0.246,"[Element Fe, Element Se, Element Te]","{'Fe': 1.0, 'Se': 0.574, 'Te': 0.246}",Fe-based,3
Fe1Se0.492Te0.328,12.7,Fe1 Se0.492 Te0.328,"[Element Fe, Element Se, Element Te]","{'Fe': 1.0, 'Se': 0.492, 'Te': 0.328}",Fe-based,3
Fe1Se0.41Te0.41,13.2,Fe1 Se0.41 Te0.41,"[Element Fe, Element Se, Element Te]","{'Fe': 1.0, 'Se': 0.41, 'Te': 0.41}",Fe-based,3
Fe1Se0.328Te0.492,13.8,Fe1 Se0.328 Te0.492,"[Element Fe, Element Se, Element Te]","{'Fe': 1.0, 'Se': 0.328, 'Te': 0.492}",Fe-based,3
Fe1Se0.246Te0.574,13.7,Fe1 Se0.246 Te0.574,"[Element Fe, Element Se, Element Te]","{'Fe': 1.0, 'Se': 0.246, 'Te': 0.574}",Fe-based,3
Fe1Se0.164Te0.656,13.1,Fe1 Se0.164 Te0.656,"[Element Fe, Element Se, Element Te]","{'Fe': 1.0, 'Se': 0.164, 'Te': 0.656}",Fe-based,3
Fe1Se0.082Te0.738,10.9,Fe1 Se0.082 Te0.738,"[Element Fe, Element Se, Element Te]","{'Fe': 1.0, 'Se': 0.082, 'Te': 0.738}",Fe-based,3
Fe1.01Se1,8.5,Fe1.01 Se1,"[Element Fe, Element Se]","{'Fe': 1.01, 'Se': 1.0}",Fe-based,2
Fe1.02Se1,6.0,Fe1.02 Se1,"[Element Fe, Element Se]","{'Fe': 1.02, 'Se': 1.0}",Fe-based,2
Fe1Se0.72,8.0,Fe1 Se0.72,"[Element Fe, Element Se]","{'Fe': 1.0, 'Se': 0.72}",Fe-based,2
Ca1Fe2.94Co0.06As2,17.0,Ca1 Fe2.94 Co0.06 As2,"[Element Ca, Element Fe, Element Co, Element As]","{'Ca': 1.0, 'Fe': 2.94, 'Co': 0.06, 'As': 2.0}",Fe-based,4
La3Ni4P4O2,2.2,La3 Ni4 P4 O2,"[Element La, Element Ni, Element P, Element O]","{'La': 3.0, 'Ni': 4.0, 'P': 4.0, 'O': 2.0}",Other,4
Ba1Fe1.91Co0.09As2,14.5,Ba1 Fe1.91 Co0.09 As2,"[Element Ba, Element Fe, Element Co, Element As]","{'Ba': 1.0, 'Fe': 1.91, 'Co': 0.09, 'As': 2.0}",Fe-based,4
Ba1Fe1.878Co0.122As2,24.0,Ba1 Fe1.878 Co0.122 As2,"[Element Ba, Element Fe, Element Co, Element As]","{'Ba': 1.0, 'Fe': 1.878, 'Co': 0.122, 'As': 2.0}",Fe-based,4
Ba1Fe1.782Co0.218As2,14.1,Ba1 Fe1.782 Co0.218 As2,"[Element Ba, Element Fe, Element Co, Element As]","{'Ba': 1.0, 'Fe': 1.782, 'Co': 0.218, 'As': 2.0}",Fe-based,4
Ba0.64K0.36Fe2As2,25.6,Ba0.64 K0.36 Fe2 As2,"[Element Ba, Element K, Element Fe, Element As]","{'Ba': 0.64, 'K': 0.36, 'Fe': 2.0, 'As': 2.0}",Fe-based,4
Lu0.5Ho0.5Rh4B4,8.43,Lu0.5 Ho0.5 Rh4 B4,"[Element Lu, Element Ho, Element Rh, Element B]","{'Lu': 0.5, 'Ho': 0.5, 'Rh': 4.0, 'B': 4.0}",Other,4
Fe1Se1,9.45,Fe1 Se1,"[Element Fe, Element Se]","{'Fe': 1.0, 'Se': 1.0}",Fe-based,2
Nb5Si2.8B0.2,5.9,Nb5 Si2.8 B0.2,"[Element Nb, Element Si, Element B]","{'Nb': 5.0, 'Si': 2.8, 'B': 0.2}",Other,3
Nb5Si2.6B0.4,6.4,Nb5 Si2.6 B0.4,"[Element Nb, Element Si, Element B]","{'Nb': 5.0, 'Si': 2.6, 'B': 0.4}",Other,3
Nb5Si2.4B0.6,7.8,Nb5 Si2.4 B0.6,"[Element Nb, Element Si, Element B]","{'Nb': 5.0, 'Si': 2.4, 'B': 0.6}",Other,3
Nb5Si2.2B0.8,6.6,Nb5 Si2.2 B0.8,"[Element Nb, Element Si, Element B]","{'Nb': 5.0, 'Si': 2.2, 'B': 0.8}",Other,3
Nb5Si2B1,6.4,Nb5 Si2 B1,"[Element Nb, Element Si, Element B]","{'Nb': 5.0, 'Si': 2.0, 'B': 1.0}",Other,3
Ce1Fe0.9Co0.1As1O1,10.0,Ce1 Fe0.9 Co0.1 As1 O1,"[Element Ce, Element Fe, Element Co, Element As, Element O]","{'Ce': 1.0, 'Fe': 0.9, 'Co': 0.1, 'As': 1.0, 'O': 1.0}",Fe-based,5
Ce1Fe0.85Co0.15As1O1,5.0,Ce1 Fe0.85 Co0.15 As1 O1,"[Element Ce, Element Fe, Element Co, Element As, Element O]","{'Ce': 1.0, 'Fe': 0.85, 'Co': 0.15, 'As': 1.0, 'O': 1.0}",Fe-based,5
Ba1Rh2P2,1.0,Ba1 Rh2 P2,"[Element Ba, Element Rh, Element P]","{'Ba': 1.0, 'Rh': 2.0, 'P': 2.0}",Other,3
Ba1Ir2P2,2.1,Ba1 Ir2 P2,"[Element Ba, Element Ir, Element P]","{'Ba': 1.0, 'Ir': 2.0, 'P': 2.0}",Other,3
Ce1Fe1As1F0.1O0.9,38.2,Ce1 Fe1 As1 F0.1 O0.9,"[Element Ce, Element Fe, Element As, Element F, Element O]","{'Ce': 1.0, 'Fe': 1.0, 'As': 1.0, 'F': 0.1, 'O': 0.9}",Fe-based,5
Ce1Fe1As1F0.2O0.8,40.4,Ce1 Fe1 As1 F0.2 O0.8,"[Element Ce, Element Fe, Element As, Element F, Element O]","{'Ce': 1.0, 'Fe': 1.0, 'As': 1.0, 'F': 0.2, 'O': 0.8}",Fe-based,5
La1Fe1As1O0.7,28.4,La1 Fe1 As1 O0.7,"[Element La, Element Fe, Element As, Element O]","{'La': 1.0, 'Fe': 1.0, 'As': 1.0, 'O': 0.7}",Fe-based,4
Ce1Fe1As1O0.7,40.2,Ce1 Fe1 As1 O0.7,"[Element Ce, Element Fe, Element As, Element O]","{'Ce': 1.0, 'Fe': 1.0, 'As': 1.0, 'O': 0.7}",Fe-based,4
Pr1Fe1As1O0.7,48.5,Pr1 Fe1 As1 O0.7,"[Element Pr, Element Fe, Element As, Element O]","{'Pr': 1.0, 'Fe': 1.0, 'As': 1.0, 'O': 0.7}",Fe-based,4
Sm1Fe1As1O0.7,52.1,Sm1 Fe1 As1 O0.7,"[Element Sm, Element Fe, Element As, Element O]","{'Sm': 1.0, 'Fe': 1.0, 'As': 1.0, 'O': 0.7}",Fe-based,4
Tb1Fe1As1O0.7,52.2,Tb1 Fe1 As1 O0.7,"[Element Tb, Element Fe, Element As, Element O]","{'Tb': 1.0, 'Fe': 1.0, 'As': 1.0, 'O': 0.7}",Fe-based,4
Nb0.6Ru0.4Sr2Eu1.5Ce0.5Cu2O10,37.3,Nb0.6 Ru0.4 Sr2 Eu1.5 Ce0.5 Cu2 O10,"[Element Nb, Element Ru, Element Sr, Element Eu, Element Ce, Element Cu, Element O]","{'Nb': 0.6, 'Ru': 0.4, 'Sr': 2.0, 'Eu': 1.5, 'Ce': 0.5, 'Cu': 2.0, 'O': 10.0}",Cuprates,7
Nb0.6Ru0.6Sr2Eu1.5Ce0.5Cu2O10,41.4,Nb0.6 Ru0.6 Sr2 Eu1.5 Ce0.5 Cu2 O10,"[Element Nb, Element Ru, Element Sr, Element Eu, Element Ce, Element Cu, Element O]","{'Nb': 0.6, 'Ru': 0.6, 'Sr': 2.0, 'Eu': 1.5, 'Ce': 0.5, 'Cu': 2.0, 'O': 10.0}",Cuprates,7
Ba1Fe1.924Co0.076As2,6.48,Ba1 Fe1.924 Co0.076 As2,"[Element Ba, Element Fe, Element Co, Element As]","{'Ba': 1.0, 'Fe': 1.924, 'Co': 0.076, 'As': 2.0}",Fe-based,4
Ba1Fe1.852Co0.148As2,22.5,Ba1 Fe1.852 Co0.148 As2,"[Element Ba, Element Fe, Element Co, Element As]","{'Ba': 1.0, 'Fe': 1.852, 'Co': 0.148, 'As': 2.0}",Fe-based,4
Ba1Fe1.92Co0.08As2,11.0,Ba1 Fe1.92 Co0.08 As2,"[Element Ba, Element Fe, Element Co, Element As]","{'Ba': 1.0, 'Fe': 1.92, 'Co': 0.08, 'As': 2.0}",Fe-based,4
Ba1Fe1.906Co0.094As2,16.7,Ba1 Fe1.906 Co0.094 As2,"[Element Ba, Element Fe, Element Co, Element As]","{'Ba': 1.0, 'Fe': 1.906, 'Co': 0.094, 'As': 2.0}",Fe-based,4
Ba1Fe1.884Co0.116As2,22.8,Ba1 Fe1.884 Co0.116 As2,"[Element Ba, Element Fe, Element Co, Element As]","{'Ba': 1.0, 'Fe': 1.884, 'Co': 0.116, 'As': 2.0}",Fe-based,4
Ba1Fe1.772Co0.228As2,10.6,Ba1 Fe1.772 Co0.228 As2,"[Element Ba, Element Fe, Element Co, Element As]","{'Ba': 1.0, 'Fe': 1.772, 'Co': 0.228, 'As': 2.0}",Fe-based,4
La1Fe0.975Co0.025As1O1,8.58,La1 Fe0.975 Co0.025 As1 O1,"[Element La, Element Fe, Element Co, Element As, Element O]","{'La': 1.0, 'Fe': 0.975, 'Co': 0.025, 'As': 1.0, 'O': 1.0}",Fe-based,5
La1Fe0.925Co0.075As1O1,12.66,La1 Fe0.925 Co0.075 As1 O1,"[Element La, Element Fe, Element Co, Element As, Element O]","{'La': 1.0, 'Fe': 0.925, 'Co': 0.075, 'As': 1.0, 'O': 1.0}",Fe-based,5
La1Fe0.9Co0.1As1O1,11.02,La1 Fe0.9 Co0.1 As1 O1,"[Element La, Element Fe, Element Co, Element As, Element O]","{'La': 1.0, 'Fe': 0.9, 'Co': 0.1, 'As': 1.0, 'O': 1.0}",Fe-based,5
La1Fe0.875Co0.125As1O1,6.6,La1 Fe0.875 Co0.125 As1 O1,"[Element La, Element Fe, Element Co, Element As, Element O]","{'La': 1.0, 'Fe': 0.875, 'Co': 0.125, 'As': 1.0, 'O': 1.0}",Fe-based,5
Sm1Fe0.95Co0.05As1O1,5.13,Sm1 Fe0.95 Co0.05 As1 O1,"[Element Sm, Element Fe, Element Co, Element As, Element O]","{'Sm': 1.0, 'Fe': 0.95, 'Co': 0.05, 'As': 1.0, 'O': 1.0}",Fe-based,5
Sm1Fe0.925Co0.075As1O1,15.0,Sm1 Fe0.925 Co0.075 As1 O1,"[Element Sm, Element Fe, Element Co, Element As, Element O]","{'Sm': 1.0, 'Fe': 0.925, 'Co': 0.075, 'As': 1.0, 'O': 1.0}",Fe-based,5
Sm1Fe0.9Co0.1As1O1,17.3,Sm1 Fe0.9 Co0.1 As1 O1,"[Element Sm, Element Fe, Element Co, Element As, Element O]","{'Sm': 1.0, 'Fe': 0.9, 'Co': 0.1, 'As': 1.0, 'O': 1.0}",Fe-based,5
Sm1Fe0.875Co0.125As1O1,15.8,Sm1 Fe0.875 Co0.125 As1 O1,"[Element Sm, Element Fe, Element Co, Element As, Element O]","{'Sm': 1.0, 'Fe': 0.875, 'Co': 0.125, 'As': 1.0, 'O': 1.0}",Fe-based,5
Sm1Fe0.85Co0.15As1O1,11.75,Sm1 Fe0.85 Co0.15 As1 O1,"[Element Sm, Element Fe, Element Co, Element As, Element O]","{'Sm': 1.0, 'Fe': 0.85, 'Co': 0.15, 'As': 1.0, 'O': 1.0}",Fe-based,5
Sm1Fe0.8Co0.2As1O1,3.79,Sm1 Fe0.8 Co0.2 As1 O1,"[Element Sm, Element Fe, Element Co, Element As, Element O]","{'Sm': 1.0, 'Fe': 0.8, 'Co': 0.2, 'As': 1.0, 'O': 1.0}",Fe-based,5
Sn0.979In0.021Te1,0.936,Sn0.979 In0.021 Te1,"[Element Sn, Element In, Element Te]","{'Sn': 0.979, 'In': 0.021, 'Te': 1.0}",Other,3
Sn0.956In0.044Te1,1.017,Sn0.956 In0.044 Te1,"[Element Sn, Element In, Element Te]","{'Sn': 0.956, 'In': 0.044, 'Te': 1.0}",Other,3
Sn0.949In0.051Te1,1.653,Sn0.949 In0.051 Te1,"[Element Sn, Element In, Element Te]","{'Sn': 0.949, 'In': 0.051, 'Te': 1.0}",Other,3
Sn0.901In0.099Te1,1.746,Sn0.901 In0.099 Te1,"[Element Sn, Element In, Element Te]","{'Sn': 0.901, 'In': 0.099, 'Te': 1.0}",Other,3
Nb2In1C1,7.5,Nb2 In1 C1,"[Element Nb, Element In, Element C]","{'Nb': 2.0, 'In': 1.0, 'C': 1.0}",Other,3
H4Si1,17.0,H4 Si1,"[Element H, Element Si]","{'H': 4.0, 'Si': 1.0}",Hydrides,2
La0.85Na0.15Fe1As1F0.15O0.85,28.0,La0.85 Na0.15 Fe1 As1 F0.15 O0.85,"[Element La, Element Na, Element Fe, Element As, Element F, Element O]","{'La': 0.85, 'Na': 0.15, 'Fe': 1.0, 'As': 1.0, 'F': 0.15, 'O': 0.85}",Fe-based,6
La0.8Na0.2Fe1As1F0.2O0.8,23.02,La0.8 Na0.2 Fe1 As1 F0.2 O0.8,"[Element La, Element Na, Element Fe, Element As, Element F, Element O]","{'La': 0.8, 'Na': 0.2, 'Fe': 1.0, 'As': 1.0, 'F': 0.2, 'O': 0.8}",Fe-based,6
Ba1Ni2As2,1.095,Ba1 Ni2 As2,"[Element Ba, Element Ni, Element As]","{'Ba': 1.0, 'Ni': 2.0, 'As': 2.0}",Other,3
Fe1Te0.67Se0.33,14.0,Fe1 Te0.67 Se0.33,"[Element Fe, Element Te, Element Se]","{'Fe': 1.0, 'Te': 0.67, 'Se': 0.33}",Fe-based,3
Fe1Te0.5Se0.5,14.0,Fe1 Te0.5 Se0.5,"[Element Fe, Element Te, Element Se]","{'Fe': 1.0, 'Te': 0.5, 'Se': 0.5}",Fe-based,3
Fe1Se0.88,8.0,Fe1 Se0.88,"[Element Fe, Element Se]","{'Fe': 1.0, 'Se': 0.88}",Fe-based,2
Sm1Fe1As1F0.07O0.93,33.0,Sm1 Fe1 As1 F0.07 O0.93,"[Element Sm, Element Fe, Element As, Element F, Element O]","{'Sm': 1.0, 'Fe': 1.0, 'As': 1.0, 'F': 0.07, 'O': 0.93}",Fe-based,5
Pr0.75Sr0.25Fe1As1O1,16.3,Pr0.75 Sr0.25 Fe1 As1 O1,"[Element Pr, Element Sr, Element Fe, Element As, Element O]","{'Pr': 0.75, 'Sr': 0.25, 'Fe': 1.0, 'As': 1.0, 'O': 1.0}",Fe-based,5
Ba1Pb0.75Bi0.253,12.5,Ba1 Pb0.75 Bi0.253,"[Element Ba, Element Pb, Element Bi]","{'Ba': 1.0, 'Pb': 0.75, 'Bi': 0.253}",Other,3
Ba1Pb0.65Hg0.1Bi0.25O3,10.0,Ba1 Pb0.65 Hg0.1 Bi0.25 O3,"[Element Ba, Element Pb, Element Hg, Element Bi, Element O]","{'Ba': 1.0, 'Pb': 0.65, 'Hg': 0.1, 'Bi': 0.25, 'O': 3.0}",Other,5
Ba1Pb0.55Hg0.2Bi0.25O3,3.83,Ba1 Pb0.55 Hg0.2 Bi0.25 O3,"[Element Ba, Element Pb, Element Hg, Element Bi, Element O]","{'Ba': 1.0, 'Pb': 0.55, 'Hg': 0.2, 'Bi': 0.25, 'O': 3.0}",Other,5
Ba1Pb0.45Hg0.3Bi0.25O3,4.42,Ba1 Pb0.45 Hg0.3 Bi0.25 O3,"[Element Ba, Element Pb, Element Hg, Element Bi, Element O]","{'Ba': 1.0, 'Pb': 0.45, 'Hg': 0.3, 'Bi': 0.25, 'O': 3.0}",Other,5
Ba1Pb0.35Hg0.4Bi0.25O3,10.7,Ba1 Pb0.35 Hg0.4 Bi0.25 O3,"[Element Ba, Element Pb, Element Hg, Element Bi, Element O]","{'Ba': 1.0, 'Pb': 0.35, 'Hg': 0.4, 'Bi': 0.25, 'O': 3.0}",Other,5
Ba0.84Rb0.1Sn0.09Fe2As2,22.6,Ba0.84 Rb0.1 Sn0.09 Fe2 As2,"[Element Ba, Element Rb, Element Sn, Element Fe, Element As]","{'Ba': 0.84, 'Rb': 0.1, 'Sn': 0.09, 'Fe': 2.0, 'As': 2.0}",Fe-based,5
Fe1Se0.9S0.1,9.94,Fe1 Se0.9 S0.1,"[Element Fe, Element Se, Element S]","{'Fe': 1.0, 'Se': 0.9, 'S': 0.1}",Fe-based,3
Fe1Se0.8S0.2,9.23,Fe1 Se0.8 S0.2,"[Element Fe, Element Se, Element S]","{'Fe': 1.0, 'Se': 0.8, 'S': 0.2}",Fe-based,3
Sr1Ni2P2,1.415,Sr1 Ni2 P2,"[Element Sr, Element Ni, Element P]","{'Sr': 1.0, 'Ni': 2.0, 'P': 2.0}",Other,3
Eu1Fe2As1.4P0.6,26.0,Eu1 Fe2 As1.4 P0.6,"[Element Eu, Element Fe, Element As, Element P]","{'Eu': 1.0, 'Fe': 2.0, 'As': 1.4, 'P': 0.6}",Fe-based,4
Ce1Co1In4.9992Hg0.0008,2.254,Ce1 Co1 In4.9992 Hg0.0008,"[Element Ce, Element Co, Element In, Element Hg]","{'Ce': 1.0, 'Co': 1.0, 'In': 4.9992, 'Hg': 0.0008}",Other,4
Ce1Co1In4.9976Hg0.0024,2.252,Ce1 Co1 In4.9976 Hg0.0024,"[Element Ce, Element Co, Element In, Element Hg]","{'Ce': 1.0, 'Co': 1.0, 'In': 4.9976, 'Hg': 0.0024}",Other,4
La1Fe1As1F0.07O0.93,25.2,La1 Fe1 As1 F0.07 O0.93,"[Element La, Element Fe, Element As, Element F, Element O]","{'La': 1.0, 'Fe': 1.0, 'As': 1.0, 'F': 0.07, 'O': 0.93}",Fe-based,5
La1Fe1As1F0.14O0.86,17.8,La1 Fe1 As1 F0.14 O0.86,"[Element La, Element Fe, Element As, Element F, Element O]","{'La': 1.0, 'Fe': 1.0, 'As': 1.0, 'F': 0.14, 'O': 0.86}",Fe-based,5
Sr4Sc2Fe2P2O6,17.0,Sr4 Sc2 Fe2 P2 O6,"[Element Sr, Element Sc, Element Fe, Element P, Element O]","{'Sr': 4.0, 'Sc': 2.0, 'Fe': 2.0, 'P': 2.0, 'O': 6.0}",Fe-based,5
Sr4V2Fe2As2O6,31.5,Sr4 V2 Fe2 As2 O6,"[Element Sr, Element V, Element Fe, Element As, Element O]","{'Sr': 4.0, 'V': 2.0, 'Fe': 2.0, 'As': 2.0, 'O': 6.0}",Fe-based,5
Re0.999W0.001,1.723,Re0.999 W0.001,"[Element Re, Element W]","{'Re': 0.999, 'W': 0.001}",Other,2
Re0.9993Mo0.0007,1.694,Re0.9993 Mo0.0007,"[Element Re, Element Mo]","{'Re': 0.9993, 'Mo': 0.0007}",Other,2
Re0.9467Os0.0533,1.934,Re0.9467 Os0.0533,"[Element Re, Element Os]","{'Re': 0.9467, 'Os': 0.0533}",Other,2
Ba1Fe1.945Ni0.055As2,7.4,Ba1 Fe1.945 Ni0.055 As2,"[Element Ba, Element Fe, Element Ni, Element As]","{'Ba': 1.0, 'Fe': 1.945, 'Ni': 0.055, 'As': 2.0}",Fe-based,4
Ba1Fe1.904Ni0.096As2,20.2,Ba1 Fe1.904 Ni0.096 As2,"[Element Ba, Element Fe, Element Ni, Element As]","{'Ba': 1.0, 'Fe': 1.904, 'Ni': 0.096, 'As': 2.0}",Fe-based,4
Ba1Fe1.82Ni0.18As2,17.4,Ba1 Fe1.82 Ni0.18 As2,"[Element Ba, Element Fe, Element Ni, Element As]","{'Ba': 1.0, 'Fe': 1.82, 'Ni': 0.18, 'As': 2.0}",Fe-based,4
Ba1Fe1.77Ni0.23As2,3.53,Ba1 Fe1.77 Ni0.23 As2,"[Element Ba, Element Fe, Element Ni, Element As]","{'Ba': 1.0, 'Fe': 1.77, 'Ni': 0.23, 'As': 2.0}",Fe-based,4
Fe1.03Te0.7Se0.3,12.4,Fe1.03 Te0.7 Se0.3,"[Element Fe, Element Te, Element Se]","{'Fe': 1.03, 'Te': 0.7, 'Se': 0.3}",Fe-based,3
Ce1Pt1Si2,0.14,Ce1 Pt1 Si2,"[Element Ce, Element Pt, Element Si]","{'Ce': 1.0, 'Pt': 1.0, 'Si': 2.0}",Other,3
La1Fe0.96Ni0.04As1O1,6.5,La1 Fe0.96 Ni0.04 As1 O1,"[Element La, Element Fe, Element Ni, Element As, Element O]","{'La': 1.0, 'Fe': 0.96, 'Ni': 0.04, 'As': 1.0, 'O': 1.0}",Fe-based,5
Sr0.42K0.58Fe2As2,36.0,Sr0.42 K0.58 Fe2 As2,"[Element Sr, Element K, Element Fe, Element As]","{'Sr': 0.42, 'K': 0.58, 'Fe': 2.0, 'As': 2.0}",Fe-based,4
Sr0.67K0.33Fe2As2,21.7,Sr0.67 K0.33 Fe2 As2,"[Element Sr, Element K, Element Fe, Element As]","{'Sr': 0.67, 'K': 0.33, 'Fe': 2.0, 'As': 2.0}",Fe-based,4
Sr0.9K0.1Fe2As2,5.11,Sr0.9 K0.1 Fe2 As2,"[Element Sr, Element K, Element Fe, Element As]","{'Sr': 0.9, 'K': 0.1, 'Fe': 2.0, 'As': 2.0}",Fe-based,4
Sr0.5K0.5Fe2As2,37.7,Sr0.5 K0.5 Fe2 As2,"[Element Sr, Element K, Element Fe, Element As]","{'Sr': 0.5, 'K': 0.5, 'Fe': 2.0, 'As': 2.0}",Fe-based,4
Ho1Fe1As1O0.85,49.1,Ho1 Fe1 As1 O0.85,"[Element Ho, Element Fe, Element As, Element O]","{'Ho': 1.0, 'Fe': 1.0, 'As': 1.0, 'O': 0.85}",Fe-based,4
Tb1Fe1As1O0.85,46.8,Tb1 Fe1 As1 O0.85,"[Element Tb, Element Fe, Element As, Element O]","{'Tb': 1.0, 'Fe': 1.0, 'As': 1.0, 'O': 0.85}",Fe-based,4
Ca1Fe0.93Co0.07F1,9.1,Ca1 Fe0.93 Co0.07 F1,"[Element Ca, Element Fe, Element Co, Element F]","{'Ca': 1.0, 'Fe': 0.93, 'Co': 0.07, 'F': 1.0}",Fe-based,4
Ca1Fe0.9Co0.1As1F1,23.0,Ca1 Fe0.9 Co0.1 As1 F1,"[Element Ca, Element Fe, Element Co, Element As, Element F]","{'Ca': 1.0, 'Fe': 0.9, 'Co': 0.1, 'As': 1.0, 'F': 1.0}",Fe-based,5
Ca1Fe0.85Co0.15As1F1,21.2,Ca1 Fe0.85 Co0.15 As1 F1,"[Element Ca, Element Fe, Element Co, Element As, Element F]","{'Ca': 1.0, 'Fe': 0.85, 'Co': 0.15, 'As': 1.0, 'F': 1.0}",Fe-based,5
Ca1Fe0.8Co0.2As1F1,16.6,Ca1 Fe0.8 Co0.2 As1 F1,"[Element Ca, Element Fe, Element Co, Element As, Element F]","{'Ca': 1.0, 'Fe': 0.8, 'Co': 0.2, 'As': 1.0, 'F': 1.0}",Fe-based,5
Ca1Fe0.74Co0.26As1F1,3.49,Ca1 Fe0.74 Co0.26 As1 F1,"[Element Ca, Element Fe, Element Co, Element As, Element F]","{'Ca': 1.0, 'Fe': 0.74, 'Co': 0.26, 'As': 1.0, 'F': 1.0}",Fe-based,5
Ca1Fe0.9Ni0.1As1F1,15.4,Ca1 Fe0.9 Ni0.1 As1 F1,"[Element Ca, Element Fe, Element Ni, Element As, Element F]","{'Ca': 1.0, 'Fe': 0.9, 'Ni': 0.1, 'As': 1.0, 'F': 1.0}",Fe-based,5
Ca1Fe0.85Ni0.15As1F1,8.72,Ca1 Fe0.85 Ni0.15 As1 F1,"[Element Ca, Element Fe, Element Ni, Element As, Element F]","{'Ca': 1.0, 'Fe': 0.85, 'Ni': 0.15, 'As': 1.0, 'F': 1.0}",Fe-based,5
Ca1Fe0.8Ni0.2As1F1,3.92,Ca1 Fe0.8 Ni0.2 As1 F1,"[Element Ca, Element Fe, Element Ni, Element As, Element F]","{'Ca': 1.0, 'Fe': 0.8, 'Ni': 0.2, 'As': 1.0, 'F': 1.0}",Fe-based,5
La1Fe1As1F0.15O0.85,24.3,La1 Fe1 As1 F0.15 O0.85,"[Element La, Element Fe, Element As, Element F, Element O]","{'La': 1.0, 'Fe': 1.0, 'As': 1.0, 'F': 0.15, 'O': 0.85}",Fe-based,5
Ga1P1,6.2,Ga1 P1,"[Element Ga, Element P]","{'Ga': 1.0, 'P': 1.0}",Other,2
In2O3,3.2,In2 O3,"[Element In, Element O]","{'In': 2.0, 'O': 3.0}",Other,2
Ba0.9K0.1Fe2As2,5.0,Ba0.9 K0.1 Fe2 As2,"[Element Ba, Element K, Element Fe, Element As]","{'Ba': 0.9, 'K': 0.1, 'Fe': 2.0, 'As': 2.0}",Fe-based,4
Ba0.8K0.2Fe2As2,23.6,Ba0.8 K0.2 Fe2 As2,"[Element Ba, Element K, Element Fe, Element As]","{'Ba': 0.8, 'K': 0.2, 'Fe': 2.0, 'As': 2.0}",Fe-based,4
Ba0.7K0.3Fe2As2,37.5,Ba0.7 K0.3 Fe2 As2,"[Element Ba, Element K, Element Fe, Element As]","{'Ba': 0.7, 'K': 0.3, 'Fe': 2.0, 'As': 2.0}",Fe-based,4
Tb1Fe1As1F0.1O0.9,50.0,Tb1 Fe1 As1 F0.1 O0.9,"[Element Tb, Element Fe, Element As, Element F, Element O]","{'Tb': 1.0, 'Fe': 1.0, 'As': 1.0, 'F': 0.1, 'O': 0.9}",Fe-based,5
Pr1Fe1P1O1,3.2,Pr1 Fe1 P1 O1,"[Element Pr, Element Fe, Element P, Element O]","{'Pr': 1.0, 'Fe': 1.0, 'P': 1.0, 'O': 1.0}",Fe-based,4
Na1Fe1As1,9.0,Na1 Fe1 As1,"[Element Na, Element Fe, Element As]","{'Na': 1.0, 'Fe': 1.0, 'As': 1.0}",Fe-based,3
Na0.9Fe1As1,7.0,Na0.9 Fe1 As1,"[Element Na, Element Fe, Element As]","{'Na': 0.9, 'Fe': 1.0, 'As': 1.0}",Fe-based,3
Na0.5Fe1As1,12.0,Na0.5 Fe1 As1,"[Element Na, Element Fe, Element As]","{'Na': 0.5, 'Fe': 1.0, 'As': 1.0}",Fe-based,3
Ba1Fe1.84Co0.16As2,21.5,Ba1 Fe1.84 Co0.16 As2,"[Element Ba, Element Fe, Element Co, Element As]","{'Ba': 1.0, 'Fe': 1.84, 'Co': 0.16, 'As': 2.0}",Fe-based,4
Ba1Fe1.77Co0.23As2,16.5,Ba1 Fe1.77 Co0.23 As2,"[Element Ba, Element Fe, Element Co, Element As]","{'Ba': 1.0, 'Fe': 1.77, 'Co': 0.23, 'As': 2.0}",Fe-based,4