chemical_formula,Tc,composition,elements,stoichiometry,Category,num_elements
Hf1Rh1Si1,2.3,Hf1 Rh1 Si1,"[Element Hf, Element Rh, Element Si]","{'Hf': 1.0, 'Rh': 1.0, 'Si': 1.0}",Other,3
Hf1Ru4P2,9.5,Hf1 Ru4 P2,"[Element Hf, Element Ru, Element P]","{'Hf': 1.0, 'Ru': 4.0, 'P': 2.0}",Other,3
Mo1Ni1P1,15.5,Mo1 Ni1 P1,"[Element Mo, Element Ni, Element P]","{'Mo': 1.0, 'Ni': 1.0, 'P': 1.0}",Other,3
Mo1Ru1P1,15.5,Mo1 Ru1 P1,"[Element Mo, Element Ru, Element P]","{'Mo': 1.0, 'Ru': 1.0, 'P': 1.0}",Other,3
Ce1Rh0.5Co0.5In5,1.4,Ce1 Rh0.5 Co0.5 In5,"[Element Ce, Element Rh, Element Co, Element In]","{'Ce': 1.0, 'Rh': 0.5, 'Co': 0.5, 'In': 5.0}",Other,4
Ce1Rh0.3Co0.7In5,1.42,Ce1 Rh0.3 Co0.7 In5,"[Element Ce, Element Rh, Element Co, Element In]","{'Ce': 1.0, 'Rh': 0.3, 'Co': 0.7, 'In': 5.0}",Other,4
Ce1Rh0.2Co0.8In5,1.57,Ce1 Rh0.2 Co0.8 In5,"[Element Ce, Element Rh, Element Co, Element In]","{'Ce': 1.0, 'Rh': 0.2, 'Co': 0.8, 'In': 5.0}",Other,4
Ce1Co1.95,0.87,Ce1 Co1.95,"[Element Ce, Element Co]","{'Ce': 1.0, 'Co': 1.95}",Other,2
Ce1Co1.85,0.86,Ce1 Co1.85,"[Element Ce, Element Co]","{'Ce': 1.0, 'Co': 1.85}",Other,2
Mg1Co1Ni2.97Co0.03,6.7,Mg1 Co1.03 Ni2.97,"[Element Mg, Element Co, Element Ni]","{'Mg': 1.0, 'Co': 1.03, 'Ni': 2.97}",Other,3
Mg1Co1Ni2.94Co0.06,6.0,Mg1 Co1.06 Ni2.94,"[Element Mg, Element Co, Element Ni]","{'Mg': 1.0, 'Co': 1.06, 'Ni': 2.94}",Other,3
Mg1Co1Ni2.91Co0.09,6.0,Mg1 Co1.09 Ni2.91,"[Element Mg, Element Co, Element Ni]","{'Mg': 1.0, 'Co': 1.09, 'Ni': 2.91}",Other,3
In1V6S8,3.9,In1 V6 S8,"[Element In, Element V, Element S]","{'In': 1.0, 'V': 6.0, 'S': 8.0}",Other,3
Tl1V6S8,4.1,Tl1 V6 S8,"[Element Tl, Element V, Element S]","{'Tl': 1.0, 'V': 6.0, 'S': 8.0}",Other,3
K1V6S8,0.71,K1 V6 S8,"[Element K, Element V, Element S]","{'K': 1.0, 'V': 6.0, 'S': 8.0}",Other,3
Rb1V6S8,0.65,Rb1 V6 S8,"[Element Rb, Element V, Element S]","{'Rb': 1.0, 'V': 6.0, 'S': 8.0}",Other,3
Cs1V6S8,0.32,Cs1 V6 S8,"[Element Cs, Element V, Element S]","{'Cs': 1.0, 'V': 6.0, 'S': 8.0}",Other,3
S8V6,0.76,S8 V6,"[Element S, Element V]","{'S': 8.0, 'V': 6.0}",Other,2
Tl0.61V6S8,3.5,Tl0.61 V6 S8,"[Element Tl, Element V, Element S]","{'Tl': 0.61, 'V': 6.0, 'S': 8.0}",Other,3
Tl0.26V6S8,0.74,Tl0.26 V6 S8,"[Element Tl, Element V, Element S]","{'Tl': 0.26, 'V': 6.0, 'S': 8.0}",Other,3
In0.63V6S8,0.95,In0.63 V6 S8,"[Element In, Element V, Element S]","{'In': 0.63, 'V': 6.0, 'S': 8.0}",Other,3
Mg1C0.978Ni3,7.3,Mg1 C0.978 Ni3,"[Element Mg, Element C, Element Ni]","{'Mg': 1.0, 'C': 0.978, 'Ni': 3.0}",Other,3
Mg1C0.965Ni3,6.3,Mg1 C0.965 Ni3,"[Element Mg, Element C, Element Ni]","{'Mg': 1.0, 'C': 0.965, 'Ni': 3.0}",Other,3
Mg1C0.906Ni3,3.38,Mg1 C0.906 Ni3,"[Element Mg, Element C, Element Ni]","{'Mg': 1.0, 'C': 0.906, 'Ni': 3.0}",Other,3
In0.71V6S8,5.4,In0.71 V6 S8,"[Element In, Element V, Element S]","{'In': 0.71, 'V': 6.0, 'S': 8.0}",Other,3
Ba1Nb2Se5,2.5,Ba1 Nb2 Se5,"[Element Ba, Element Nb, Element Se]","{'Ba': 1.0, 'Nb': 2.0, 'Se': 5.0}",Other,3
Ag1Sn1Se2,4.71,Ag1 Sn1 Se2,"[Element Ag, Element Sn, Element Se]","{'Ag': 1.0, 'Sn': 1.0, 'Se': 2.0}",Other,3
Ag0.95Sn1.05Se2,5.28,Ag0.95 Sn1.05 Se2,"[Element Ag, Element Sn, Element Se]","{'Ag': 0.95, 'Sn': 1.05, 'Se': 2.0}",Other,3
Ag0.92Sn1.08Se2,5.57,Ag0.92 Sn1.08 Se2,"[Element Ag, Element Sn, Element Se]","{'Ag': 0.92, 'Sn': 1.08, 'Se': 2.0}",Other,3
Ag0.85Sn1.15Se2,6.23,Ag0.85 Sn1.15 Se2,"[Element Ag, Element Sn, Element Se]","{'Ag': 0.85, 'Sn': 1.15, 'Se': 2.0}",Other,3
Ag0.81Sn1.19Se2,6.47,Ag0.81 Sn1.19 Se2,"[Element Ag, Element Sn, Element Se]","{'Ag': 0.81, 'Sn': 1.19, 'Se': 2.0}",Other,3
Ag1Sn1Se1.8S0.2,5.79,Ag1 Sn1 Se1.8 S0.2,"[Element Ag, Element Sn, Element Se, Element S]","{'Ag': 1.0, 'Sn': 1.0, 'Se': 1.8, 'S': 0.2}",Other,4
Ag0.9Sn1.1Se1.8S0.2,6.79,Ag0.9 Sn1.1 Se1.8 S0.2,"[Element Ag, Element Sn, Element Se, Element S]","{'Ag': 0.9, 'Sn': 1.1, 'Se': 1.8, 'S': 0.2}",Other,4
C0.9S0.1,35.0,C0.9 S0.1,"[Element C, Element S]","{'C': 0.9, 'S': 0.1}",Other,2
Mg0.91Al0.09B2,34.7,Mg0.91 Al0.09 B2,"[Element Mg, Element Al, Element B]","{'Mg': 0.91, 'Al': 0.09, 'B': 2.0}",Other,3
Mg0.81Al0.19B2,30.8,Mg0.81 Al0.19 B2,"[Element Mg, Element Al, Element B]","{'Mg': 0.81, 'Al': 0.19, 'B': 2.0}",Other,3
Mg0.71Al0.29B2,24.0,Mg0.71 Al0.29 B2,"[Element Mg, Element Al, Element B]","{'Mg': 0.71, 'Al': 0.29, 'B': 2.0}",Other,3
Mg0.5Al0.5B2,12.9,Mg0.5 Al0.5 B2,"[Element Mg, Element Al, Element B]","{'Mg': 0.5, 'Al': 0.5, 'B': 2.0}",Other,3
Mg0.4Al0.6B2,12.0,Mg0.4 Al0.6 B2,"[Element Mg, Element Al, Element B]","{'Mg': 0.4, 'Al': 0.6, 'B': 2.0}",Other,3
Mg0.31Al0.69B2,11.1,Mg0.31 Al0.69 B2,"[Element Mg, Element Al, Element B]","{'Mg': 0.31, 'Al': 0.69, 'B': 2.0}",Other,3
Mg0.23Al0.77B2,5.1,Mg0.23 Al0.77 B2,"[Element Mg, Element Al, Element B]","{'Mg': 0.23, 'Al': 0.77, 'B': 2.0}",Other,3
La1Pt2.1B2.4C1.2,10.5,La1 Pt2.1 B2.4 C1.2,"[Element La, Element Pt, Element B, Element C]","{'La': 1.0, 'Pt': 2.1, 'B': 2.4, 'C': 1.2}",Other,4
Pr1Pt2.1B2.4C1.2,6.0,Pr1 Pt2.1 B2.4 C1.2,"[Element Pr, Element Pt, Element B, Element C]","{'Pr': 1.0, 'Pt': 2.1, 'B': 2.4, 'C': 1.2}",Other,4
La0.9Pr0.1Pt2.1B2.4C1.2,9.0,La0.9 Pr0.1 Pt2.1 B2.4 C1.2,"[Element La, Element Pr, Element Pt, Element B, Element C]","{'La': 0.9, 'Pr': 0.1, 'Pt': 2.1, 'B': 2.4, 'C': 1.2}",Other,5
Ba8Ga16Ge30,7.5,Ba8 Ga16 Ge30,"[Element Ba, Element Ga, Element Ge]","{'Ba': 8.0, 'Ga': 16.0, 'Ge': 30.0}",Other,3
Ba2Sn3Sb6,3.9,Ba2 Sn3 Sb6,"[Element Ba, Element Sn, Element Sb]","{'Ba': 2.0, 'Sn': 3.0, 'Sb': 6.0}",Other,3
Sr1Sn3Sb4,3.9,Sr1 Sn3 Sb4,"[Element Sr, Element Sn, Element Sb]","{'Sr': 1.0, 'Sn': 3.0, 'Sb': 4.0}",Other,3
Li1Hf1N1Cl1,25.3,Li1 Hf1 N1 Cl1,"[Element Li, Element Hf, Element N, Element Cl]","{'Li': 1.0, 'Hf': 1.0, 'N': 1.0, 'Cl': 1.0}",Other,4
Li1Hf1N1Cl0.75Br0.25,23.6,Li1 Hf1 N1 Cl0.75 Br0.25,"[Element Li, Element Hf, Element N, Element Cl, Element Br]","{'Li': 1.0, 'Hf': 1.0, 'N': 1.0, 'Cl': 0.75, 'Br': 0.25}",Other,5
Li1Hf1N1Cl0.525Br0.475,22.7,Li1 Hf1 N1 Cl0.525 Br0.475,"[Element Li, Element Hf, Element N, Element Cl, Element Br]","{'Li': 1.0, 'Hf': 1.0, 'N': 1.0, 'Cl': 0.525, 'Br': 0.475}",Other,5
Li1Hf1N1Br1,24.1,Li1 Hf1 N1 Br1,"[Element Li, Element Hf, Element N, Element Br]","{'Li': 1.0, 'Hf': 1.0, 'N': 1.0, 'Br': 1.0}",Other,4
Li1Hf1N1I1,22.2,Li1 Hf1 N1 I1,"[Element Li, Element Hf, Element N, Element I]","{'Li': 1.0, 'Hf': 1.0, 'N': 1.0, 'I': 1.0}",Other,4
Na0.28Hf1N1Cl1,23.0,Na0.28 Hf1 N1 Cl1,"[Element Na, Element Hf, Element N, Element Cl]","{'Na': 0.28, 'Hf': 1.0, 'N': 1.0, 'Cl': 1.0}",Other,4
Mg0.99Co0.01B2,35.5,Mg0.99 Co0.01 B2,"[Element Mg, Element Co, Element B]","{'Mg': 0.99, 'Co': 0.01, 'B': 2.0}",Other,3
Mg0.9Co0.1B2,34.5,Mg0.9 Co0.1 B2,"[Element Mg, Element Co, Element B]","{'Mg': 0.9, 'Co': 0.1, 'B': 2.0}",Other,3
Mg0.75Co0.25B2,34.0,Mg0.75 Co0.25 B2,"[Element Mg, Element Co, Element B]","{'Mg': 0.75, 'Co': 0.25, 'B': 2.0}",Other,3
Mg0.5Co0.5B2,31.5,Mg0.5 Co0.5 B2,"[Element Mg, Element Co, Element B]","{'Mg': 0.5, 'Co': 0.5, 'B': 2.0}",Other,3
Mg0.99Sn0.01B2,33.5,Mg0.99 Sn0.01 B2,"[Element Mg, Element Sn, Element B]","{'Mg': 0.99, 'Sn': 0.01, 'B': 2.0}",Other,3
Mg0.9Fe0.1B2,34.0,Mg0.9 Fe0.1 B2,"[Element Mg, Element Fe, Element B]","{'Mg': 0.9, 'Fe': 0.1, 'B': 2.0}",Fe-based,3
Mg0.75Fe0.25B2,32.0,Mg0.75 Fe0.25 B2,"[Element Mg, Element Fe, Element B]","{'Mg': 0.75, 'Fe': 0.25, 'B': 2.0}",Fe-based,3
Rb0.23W1O3,2.6,Rb0.23 W1 O3,"[Element Rb, Element W, Element O]","{'Rb': 0.23, 'W': 1.0, 'O': 3.0}",Other,3
Rb0.2W1O3,4.16,Rb0.2 W1 O3,"[Element Rb, Element W, Element O]","{'Rb': 0.2, 'W': 1.0, 'O': 3.0}",Other,3
Mg1Co1Ni3,7.63,Mg1 Co1 Ni3,"[Element Mg, Element Co, Element Ni]","{'Mg': 1.0, 'Co': 1.0, 'Ni': 3.0}",Other,3
Cs0.005W1O3,5.9,Cs0.005 W1 O3,"[Element Cs, Element W, Element O]","{'Cs': 0.005, 'W': 1.0, 'O': 3.0}",Other,3
Nb2S1C0.9,5.0,Nb2 S1 C0.9,"[Element Nb, Element S, Element C]","{'Nb': 2.0, 'S': 1.0, 'C': 0.9}",Other,3
Nb2S1C0.85,4.68,Nb2 S1 C0.85,"[Element Nb, Element S, Element C]","{'Nb': 2.0, 'S': 1.0, 'C': 0.85}",Other,3
Nb2S1C0.82,4.43,Nb2 S1 C0.82,"[Element Nb, Element S, Element C]","{'Nb': 2.0, 'S': 1.0, 'C': 0.82}",Other,3
Cu0.67Nb2S2C1,4.85,Cu0.67 Nb2 S2 C1,"[Element Cu, Element Nb, Element S, Element C]","{'Cu': 0.67, 'Nb': 2.0, 'S': 2.0, 'C': 1.0}",Other,4
Nb2S2C1,7.6,Nb2 S2 C1,"[Element Nb, Element S, Element C]","{'Nb': 2.0, 'S': 2.0, 'C': 1.0}",Other,3
Mg1B1.8Be0.2,36.0,Mg1 B1.8 Be0.2,"[Element Mg, Element B, Element Be]","{'Mg': 1.0, 'B': 1.8, 'Be': 0.2}",Other,3
Mg1B1.7Be0.3,32.9,Mg1 B1.7 Be0.3,"[Element Mg, Element B, Element Be]","{'Mg': 1.0, 'B': 1.7, 'Be': 0.3}",Other,3
Mg1B1.6Be0.4,20.9,Mg1 B1.6 Be0.4,"[Element Mg, Element B, Element Be]","{'Mg': 1.0, 'B': 1.6, 'Be': 0.4}",Other,3
Mg1B1.4Be0.6,8.3,Mg1 B1.4 Be0.6,"[Element Mg, Element B, Element Be]","{'Mg': 1.0, 'B': 1.4, 'Be': 0.6}",Other,3
La13Ga8Sb21,2.4,La13 Ga8 Sb21,"[Element La, Element Ga, Element Sb]","{'La': 13.0, 'Ga': 8.0, 'Sb': 21.0}",Other,3
P4W14O50,0.39,P4 W14 O50,"[Element P, Element W, Element O]","{'P': 4.0, 'W': 14.0, 'O': 50.0}",Other,3
Pb1Mo6Se7.55,5.0,Pb1 Mo6 Se7.55,"[Element Pb, Element Mo, Element Se]","{'Pb': 1.0, 'Mo': 6.0, 'Se': 7.55}",Other,3
K2.9Ba4.9Si46,3.2,K2.9 Ba4.9 Si46,"[Element K, Element Ba, Element Si]","{'K': 2.9, 'Ba': 4.9, 'Si': 46.0}",Other,3
Ba1Sn3,4.3,Ba1 Sn3,"[Element Ba, Element Sn]","{'Ba': 1.0, 'Sn': 3.0}",Other,2
Eu1.2Mo6S8,9.8,Eu1.2 Mo6 S8,"[Element Eu, Element Mo, Element S]","{'Eu': 1.2, 'Mo': 6.0, 'S': 8.0}",Other,3
Tl2Mo6Se6,6.5,Tl2 Mo6 Se6,"[Element Tl, Element Mo, Element Se]","{'Tl': 2.0, 'Mo': 6.0, 'Se': 6.0}",Other,3
Tm5Ir4Si10,1.9,Tm5 Ir4 Si10,"[Element Tm, Element Ir, Element Si]","{'Tm': 5.0, 'Ir': 4.0, 'Si': 10.0}",Other,3
Lu5Rh4Si10,3.3,Lu5 Rh4 Si10,"[Element Lu, Element Rh, Element Si]","{'Lu': 5.0, 'Rh': 4.0, 'Si': 10.0}",Other,3
Lu5Ir4Si9C1,3.74,Lu5 Ir4 Si9 C1,"[Element Lu, Element Ir, Element Si, Element C]","{'Lu': 5.0, 'Ir': 4.0, 'Si': 9.0, 'C': 1.0}",Other,4
Lu4.75Sc0.25Ir4Si10,6.06,Lu4.75 Sc0.25 Ir4 Si10,"[Element Lu, Element Sc, Element Ir, Element Si]","{'Lu': 4.75, 'Sc': 0.25, 'Ir': 4.0, 'Si': 10.0}",Other,4
Lu4.5Sc0.5Ir4Si10,6.09,Lu4.5 Sc0.5 Ir4 Si10,"[Element Lu, Element Sc, Element Ir, Element Si]","{'Lu': 4.5, 'Sc': 0.5, 'Ir': 4.0, 'Si': 10.0}",Other,4
Lu4Sc1Ir4Si10,6.54,Lu4 Sc1 Ir4 Si10,"[Element Lu, Element Sc, Element Ir, Element Si]","{'Lu': 4.0, 'Sc': 1.0, 'Ir': 4.0, 'Si': 10.0}",Other,4
Lu3.5Sc1.5Ir4Si10,7.64,Lu3.5 Sc1.5 Ir4 Si10,"[Element Lu, Element Sc, Element Ir, Element Si]","{'Lu': 3.5, 'Sc': 1.5, 'Ir': 4.0, 'Si': 10.0}",Other,4
Lu2.5Sc2.5Ir4Si10,7.9,Lu2.5 Sc2.5 Ir4 Si10,"[Element Lu, Element Sc, Element Ir, Element Si]","{'Lu': 2.5, 'Sc': 2.5, 'Ir': 4.0, 'Si': 10.0}",Other,4
Lu1Sc4Ir4Si10,7.68,Lu1 Sc4 Ir4 Si10,"[Element Lu, Element Sc, Element Ir, Element Si]","{'Lu': 1.0, 'Sc': 4.0, 'Ir': 4.0, 'Si': 10.0}",Other,4
Lu0.25Sc4.75Ir4Si10,7.95,Lu0.25 Sc4.75 Ir4 Si10,"[Element Lu, Element Sc, Element Ir, Element Si]","{'Lu': 0.25, 'Sc': 4.75, 'Ir': 4.0, 'Si': 10.0}",Other,4
Lu4.5Th0.5Ir4Si10,4.88,Lu4.5 Th0.5 Ir4 Si10,"[Element Lu, Element Th, Element Ir, Element Si]","{'Lu': 4.5, 'Th': 0.5, 'Ir': 4.0, 'Si': 10.0}",Other,4
Lu4.5Tm0.5Ir4Si10,2.84,Lu4.5 Tm0.5 Ir4 Si10,"[Element Lu, Element Tm, Element Ir, Element Si]","{'Lu': 4.5, 'Tm': 0.5, 'Ir': 4.0, 'Si': 10.0}",Other,4
Sm1Rh4B4,2.7,Sm1 Rh4 B4,"[Element Sm, Element Rh, Element B]","{'Sm': 1.0, 'Rh': 4.0, 'B': 4.0}",Other,3
Er1Rh4B4,8.7,Er1 Rh4 B4,"[Element Er, Element Rh, Element B]","{'Er': 1.0, 'Rh': 4.0, 'B': 4.0}",Other,3
Tm1Rh4B4,9.8,Tm1 Rh4 B4,"[Element Tm, Element Rh, Element B]","{'Tm': 1.0, 'Rh': 4.0, 'B': 4.0}",Other,3
Lu1Rh4B4,11.7,Lu1 Rh4 B4,"[Element Lu, Element Rh, Element B]","{'Lu': 1.0, 'Rh': 4.0, 'B': 4.0}",Other,3
Th1Rh4B4,4.3,Th1 Rh4 B4,"[Element Th, Element Rh, Element B]","{'Th': 1.0, 'Rh': 4.0, 'B': 4.0}",Other,3
Ho1Ir4B4,2.0,Ho1 Ir4 B4,"[Element Ho, Element Ir, Element B]","{'Ho': 1.0, 'Ir': 4.0, 'B': 4.0}",Other,3
Er1Ir4B4,2.1,Er1 Ir4 B4,"[Element Er, Element Ir, Element B]","{'Er': 1.0, 'Ir': 4.0, 'B': 4.0}",Other,3
Tm1Ir4B4,1.6,Tm1 Ir4 B4,"[Element Tm, Element Ir, Element B]","{'Tm': 1.0, 'Ir': 4.0, 'B': 4.0}",Other,3
Sc1Ru4B4,7.2,Sc1 Ru4 B4,"[Element Sc, Element Ru, Element B]","{'Sc': 1.0, 'Ru': 4.0, 'B': 4.0}",Other,3
Lu1Ru4B4,2.0,Lu1 Ru4 B4,"[Element Lu, Element Ru, Element B]","{'Lu': 1.0, 'Ru': 4.0, 'B': 4.0}",Other,3
Pr1Th3.4Ru0.6B4,2.3,Pr1 Th3.4 Ru0.6 B4,"[Element Pr, Element Th, Element Ru, Element B]","{'Pr': 1.0, 'Th': 3.4, 'Ru': 0.6, 'B': 4.0}",Other,4
Eu1Th3.4Ru0.6B4,1.5,Eu1 Th3.4 Ru0.6 B4,"[Element Eu, Element Th, Element Ru, Element B]","{'Eu': 1.0, 'Th': 3.4, 'Ru': 0.6, 'B': 4.0}",Other,4
Ho1Th3.4Ru0.6B4,6.3,Ho1 Th3.4 Ru0.6 B4,"[Element Ho, Element Th, Element Ru, Element B]","{'Ho': 1.0, 'Th': 3.4, 'Ru': 0.6, 'B': 4.0}",Other,4
Er1Th3.4Ru0.6B4,7.9,Er1 Th3.4 Ru0.6 B4,"[Element Er, Element Th, Element Ru, Element B]","{'Er': 1.0, 'Th': 3.4, 'Ru': 0.6, 'B': 4.0}",Other,4
Tm1Th3.4Ru0.6B4,8.3,Tm1 Th3.4 Ru0.6 B4,"[Element Tm, Element Th, Element Ru, Element B]","{'Tm': 1.0, 'Th': 3.4, 'Ru': 0.6, 'B': 4.0}",Other,4
Lu1Th3.4Ru0.6B4,9.0,Lu1 Th3.4 Ru0.6 B4,"[Element Lu, Element Th, Element Ru, Element B]","{'Lu': 1.0, 'Th': 3.4, 'Ru': 0.6, 'B': 4.0}",Other,4
Ho1Rh4B4,1.4,Ho1 Rh4 B4,"[Element Ho, Element Rh, Element B]","{'Ho': 1.0, 'Rh': 4.0, 'B': 4.0}",Other,3
Lu1Ru1B2,9.99,Lu1 Ru1 B2,"[Element Lu, Element Ru, Element B]","{'Lu': 1.0, 'Ru': 1.0, 'B': 2.0}",Other,3
Sc1Os1B2,1.34,Sc1 Os1 B2,"[Element Sc, Element Os, Element B]","{'Sc': 1.0, 'Os': 1.0, 'B': 2.0}",Other,3
Lu1Os1B2,2.66,Lu1 Os1 B2,"[Element Lu, Element Os, Element B]","{'Lu': 1.0, 'Os': 1.0, 'B': 2.0}",Other,3
Th1Ru3B2,1.79,Th1 Ru3 B2,"[Element Th, Element Ru, Element B]","{'Th': 1.0, 'Ru': 3.0, 'B': 2.0}",Other,3
Lu1Os3B2,4.62,Lu1 Os3 B2,"[Element Lu, Element Os, Element B]","{'Lu': 1.0, 'Os': 3.0, 'B': 2.0}",Other,3
Lu0.5Th0.5Os3B2,4.14,Lu0.5 Th0.5 Os3 B2,"[Element Lu, Element Th, Element Os, Element B]","{'Lu': 0.5, 'Th': 0.5, 'Os': 3.0, 'B': 2.0}",Other,4
La1Rh3B2,2.82,La1 Rh3 B2,"[Element La, Element Rh, Element B]","{'La': 1.0, 'Rh': 3.0, 'B': 2.0}",Other,3
La1Ir3B2,1.65,La1 Ir3 B2,"[Element La, Element Ir, Element B]","{'La': 1.0, 'Ir': 3.0, 'B': 2.0}",Other,3
Th1Ir3B2,2.09,Th1 Ir3 B2,"[Element Th, Element Ir, Element B]","{'Th': 1.0, 'Ir': 3.0, 'B': 2.0}",Other,3
Ti1Ru1P1,1.33,Ti1 Ru1 P1,"[Element Ti, Element Ru, Element P]","{'Ti': 1.0, 'Ru': 1.0, 'P': 1.0}",Other,3
Hf1Ru1P1,12.7,Hf1 Ru1 P1,"[Element Hf, Element Ru, Element P]","{'Hf': 1.0, 'Ru': 1.0, 'P': 1.0}",Other,3
Hf1Os1P1,6.1,Hf1 Os1 P1,"[Element Hf, Element Os, Element P]","{'Hf': 1.0, 'Os': 1.0, 'P': 1.0}",Other,3
La1Ru3Si2,7.6,La1 Ru3 Si2,"[Element La, Element Ru, Element Si]","{'La': 1.0, 'Ru': 3.0, 'Si': 2.0}",Other,3
Th1Ru3Si2,3.98,Th1 Ru3 Si2,"[Element Th, Element Ru, Element Si]","{'Th': 1.0, 'Ru': 3.0, 'Si': 2.0}",Other,3
Ba0.67Pt3B2,5.6,Ba0.67 Pt3 B2,"[Element Ba, Element Pt, Element B]","{'Ba': 0.67, 'Pt': 3.0, 'B': 2.0}",Other,3
Sr0.67Pt3B2,2.78,Sr0.67 Pt3 B2,"[Element Sr, Element Pt, Element B]","{'Sr': 0.67, 'Pt': 3.0, 'B': 2.0}",Other,3
Ca0.67Pt3B2,1.57,Ca0.67 Pt3 B2,"[Element Ca, Element Pt, Element B]","{'Ca': 0.67, 'Pt': 3.0, 'B': 2.0}",Other,3
Ca1Rh1.2Sn4.5,8.7,Ca1 Rh1.2 Sn4.5,"[Element Ca, Element Rh, Element Sn]","{'Ca': 1.0, 'Rh': 1.2, 'Sn': 4.5}",Other,3
La1Ru1.5Sn4.5,3.9,La1 Ru1.5 Sn4.5,"[Element La, Element Ru, Element Sn]","{'La': 1.0, 'Ru': 1.5, 'Sn': 4.5}",Other,3
Lu3Ru4Ge13,2.3,Lu3 Ru4 Ge13,"[Element Lu, Element Ru, Element Ge]","{'Lu': 3.0, 'Ru': 4.0, 'Ge': 13.0}",Other,3
Lu3Os4Ge13,3.6,Lu3 Os4 Ge13,"[Element Lu, Element Os, Element Ge]","{'Lu': 3.0, 'Os': 4.0, 'Ge': 13.0}",Other,3
Er1Rh1.1Sn3.6,1.36,Er1 Rh1.1 Sn3.6,"[Element Er, Element Rh, Element Sn]","{'Er': 1.0, 'Rh': 1.1, 'Sn': 3.6}",Other,3
Lu1Rh1.2Sn4,4.0,Lu1 Rh1.2 Sn4,"[Element Lu, Element Rh, Element Sn]","{'Lu': 1.0, 'Rh': 1.2, 'Sn': 4.0}",Other,3
Sc5Rh4Si10,8.54,Sc5 Rh4 Si10,"[Element Sc, Element Rh, Element Si]","{'Sc': 5.0, 'Rh': 4.0, 'Si': 10.0}",Other,3
Au0.499Ga0.501,1.17,Au0.499 Ga0.501,"[Element Au, Element Ga]","{'Au': 0.499, 'Ga': 0.501}",Other,2
Au0.427Ga0.573,1.378,Au0.427 Ga0.573,"[Element Au, Element Ga]","{'Au': 0.427, 'Ga': 0.573}",Other,2
Au0.388Ga0.612,1.355,Au0.388 Ga0.612,"[Element Au, Element Ga]","{'Au': 0.388, 'Ga': 0.612}",Other,2
Au0.328Ga0.672,1.668,Au0.328 Ga0.672,"[Element Au, Element Ga]","{'Au': 0.328, 'Ga': 0.672}",Other,2
Au0.293Ga0.707,1.63,Au0.293 Ga0.707,"[Element Au, Element Ga]","{'Au': 0.293, 'Ga': 0.707}",Other,2
Au0.281Ga0.719,1.587,Au0.281 Ga0.719,"[Element Au, Element Ga]","{'Au': 0.281, 'Ga': 0.719}",Other,2
Au0.278Ga0.722,1.615,Au0.278 Ga0.722,"[Element Au, Element Ga]","{'Au': 0.278, 'Ga': 0.722}",Other,2
Au0.2Ga0.8,1.587,Au0.2 Ga0.8,"[Element Au, Element Ga]","{'Au': 0.2, 'Ga': 0.8}",Other,2
Ho1Ir3.6Rh0.4B4,1.9,Ho1 Ir3.6 Rh0.4 B4,"[Element Ho, Element Ir, Element Rh, Element B]","{'Ho': 1.0, 'Ir': 3.6, 'Rh': 0.4, 'B': 4.0}",Other,4
Er1Ir3.6Rh0.4B4,1.83,Er1 Ir3.6 Rh0.4 B4,"[Element Er, Element Ir, Element Rh, Element B]","{'Er': 1.0, 'Ir': 3.6, 'Rh': 0.4, 'B': 4.0}",Other,4
Tm1Ir3.6Rh0.4B4,1.48,Tm1 Ir3.6 Rh0.4 B4,"[Element Tm, Element Ir, Element Rh, Element B]","{'Tm': 1.0, 'Ir': 3.6, 'Rh': 0.4, 'B': 4.0}",Other,4
Lu1Ir3.6Rh0.4B4,2.67,Lu1 Ir3.6 Rh0.4 B4,"[Element Lu, Element Ir, Element Rh, Element B]","{'Lu': 1.0, 'Ir': 3.6, 'Rh': 0.4, 'B': 4.0}",Other,4
Ho1Ir2Rh2B4,6.41,Ho1 Ir2 Rh2 B4,"[Element Ho, Element Ir, Element Rh, Element B]","{'Ho': 1.0, 'Ir': 2.0, 'Rh': 2.0, 'B': 4.0}",Other,4
Er1Ir2Rh2B4,7.37,Er1 Ir2 Rh2 B4,"[Element Er, Element Ir, Element Rh, Element B]","{'Er': 1.0, 'Ir': 2.0, 'Rh': 2.0, 'B': 4.0}",Other,4
Tm1Ir2Rh2B4,4.38,Tm1 Ir2 Rh2 B4,"[Element Tm, Element Ir, Element Rh, Element B]","{'Tm': 1.0, 'Ir': 2.0, 'Rh': 2.0, 'B': 4.0}",Other,4
Lu1Ir2Rh2B4,3.08,Lu1 Ir2 Rh2 B4,"[Element Lu, Element Ir, Element Rh, Element B]","{'Lu': 1.0, 'Ir': 2.0, 'Rh': 2.0, 'B': 4.0}",Other,4
Tb1Os1.5Sn2.6,1.4,Tb1 Os1.5 Sn2.6,"[Element Tb, Element Os, Element Sn]","{'Tb': 1.0, 'Os': 1.5, 'Sn': 2.6}",Other,3
Ho1Os1.2Sn2.5,1.4,Ho1 Os1.2 Sn2.5,"[Element Ho, Element Os, Element Sn]","{'Ho': 1.0, 'Os': 1.2, 'Sn': 2.5}",Other,3
Er1Os1.1Sn2.7,1.3,Er1 Os1.1 Sn2.7,"[Element Er, Element Os, Element Sn]","{'Er': 1.0, 'Os': 1.1, 'Sn': 2.7}",Other,3
Pb1Mo6S7.9Se0.1,12.7,Pb1 Mo6 S7.9 Se0.1,"[Element Pb, Element Mo, Element S, Element Se]","{'Pb': 1.0, 'Mo': 6.0, 'S': 7.9, 'Se': 0.1}",Other,4
Pb1Mo6S7.5Se0.5,10.6,Pb1 Mo6 S7.5 Se0.5,"[Element Pb, Element Mo, Element S, Element Se]","{'Pb': 1.0, 'Mo': 6.0, 'S': 7.5, 'Se': 0.5}",Other,4
Pb1Mo6S7Se1,8.4,Pb1 Mo6 S7 Se1,"[Element Pb, Element Mo, Element S, Element Se]","{'Pb': 1.0, 'Mo': 6.0, 'S': 7.0, 'Se': 1.0}",Other,4
Pb1Mo6S6Se2,5.4,Pb1 Mo6 S6 Se2,"[Element Pb, Element Mo, Element S, Element Se]","{'Pb': 1.0, 'Mo': 6.0, 'S': 6.0, 'Se': 2.0}",Other,4
Pb1Mo6S5Se3,4.3,Pb1 Mo6 S5 Se3,"[Element Pb, Element Mo, Element S, Element Se]","{'Pb': 1.0, 'Mo': 6.0, 'S': 5.0, 'Se': 3.0}",Other,4
Pb1Mo6S4Se4,3.2,Pb1 Mo6 S4 Se4,"[Element Pb, Element Mo, Element S, Element Se]","{'Pb': 1.0, 'Mo': 6.0, 'S': 4.0, 'Se': 4.0}",Other,4
Pb1Mo6S4Se5,3.64,Pb1 Mo6 S4 Se5,"[Element Pb, Element Mo, Element S, Element Se]","{'Pb': 1.0, 'Mo': 6.0, 'S': 4.0, 'Se': 5.0}",Other,4
Pb1Mo6S2Se6,4.92,Pb1 Mo6 S2 Se6,"[Element Pb, Element Mo, Element S, Element Se]","{'Pb': 1.0, 'Mo': 6.0, 'S': 2.0, 'Se': 6.0}",Other,4
Pb1Mo6S1Se7,7.13,Pb1 Mo6 S1 Se7,"[Element Pb, Element Mo, Element S, Element Se]","{'Pb': 1.0, 'Mo': 6.0, 'S': 1.0, 'Se': 7.0}",Other,4
Mo6Se7.85S0.15,6.3,Mo6 Se7.85 S0.15,"[Element Mo, Element Se, Element S]","{'Mo': 6.0, 'Se': 7.85, 'S': 0.15}",Other,3
Mo6Se7.7S0.3,5.83,Mo6 Se7.7 S0.3,"[Element Mo, Element Se, Element S]","{'Mo': 6.0, 'Se': 7.7, 'S': 0.3}",Other,3
Mo6Se7.5S0.5,5.45,Mo6 Se7.5 S0.5,"[Element Mo, Element Se, Element S]","{'Mo': 6.0, 'Se': 7.5, 'S': 0.5}",Other,3
Mo6Se7.3S0.7,5.03,Mo6 Se7.3 S0.7,"[Element Mo, Element Se, Element S]","{'Mo': 6.0, 'Se': 7.3, 'S': 0.7}",Other,3
Mo6Se7S1,4.48,Mo6 Se7 S1,"[Element Mo, Element Se, Element S]","{'Mo': 6.0, 'Se': 7.0, 'S': 1.0}",Other,3