chemical_formula,Tc,composition,elements,stoichiometry,Category,num_elements
Nb1Se0.25Te0.75,4.4,Nb1 Se0.25 Te0.75,"[Element Nb, Element Se, Element Te]","{'Nb': 1.0, 'Se': 0.25, 'Te': 0.75}",Other,3
Ge1Te1,0.21,Ge1 Te1,"[Element Ge, Element Te]","{'Ge': 1.0, 'Te': 1.0}",Other,2
Ge0.976Te1,0.1,Ge0.976 Te1,"[Element Ge, Element Te]","{'Ge': 0.976, 'Te': 1.0}",Other,2
In4Sb1Te3,1.4,In4 Sb1 Te3,"[Element In, Element Sb, Element Te]","{'In': 4.0, 'Sb': 1.0, 'Te': 3.0}",Other,3
Mo3O5,7.2,Mo3 O5,"[Element Mo, Element O]","{'Mo': 3.0, 'O': 5.0}",Other,2
Ca0.31Sr0.7Ti1O3,0.1,Ca0.31 Sr0.7 Ti1 O3,"[Element Ca, Element Sr, Element Ti, Element O]","{'Ca': 0.31, 'Sr': 0.7, 'Ti': 1.0, 'O': 3.0}",Other,4
Ba0.1Sr0.9Ti1O3,0.1,Ba0.1 Sr0.9 Ti1 O3,"[Element Ba, Element Sr, Element Ti, Element O]","{'Ba': 0.1, 'Sr': 0.9, 'Ti': 1.0, 'O': 3.0}",Other,4
Tl0.3W1O3,2.0,Tl0.3 W1 O3,"[Element Tl, Element W, Element O]","{'Tl': 0.3, 'W': 1.0, 'O': 3.0}",Other,3
Ti0.576Rh0.287O0.14,3.37,Ti0.576 Rh0.287 O0.14,"[Element Ti, Element Rh, Element O]","{'Ti': 0.576, 'Rh': 0.287, 'O': 0.14}",Other,3
Tc0.6W0.4,7.9,Tc0.6 W0.4,"[Element Tc, Element W]","{'Tc': 0.6, 'W': 0.4}",Other,2
Ir0.37Nb0.63,2.4,Ir0.37 Nb0.63,"[Element Ir, Element Nb]","{'Ir': 0.37, 'Nb': 0.63}",Other,2
Ir2Nb3,9.8,Ir2 Nb3,"[Element Ir, Element Nb]","{'Ir': 2.0, 'Nb': 3.0}",Other,2
Al0.25Nb0.75,7.0,Al0.25 Nb0.75,"[Element Al, Element Nb]","{'Al': 0.25, 'Nb': 0.75}",Other,2
Ba0.13W1P3,1.9,Ba0.13 W1 P3,"[Element Ba, Element W, Element P]","{'Ba': 0.13, 'W': 1.0, 'P': 3.0}",Other,3
Nb3Rh2,4.04,Nb3 Rh2,"[Element Nb, Element Rh]","{'Nb': 3.0, 'Rh': 2.0}",Other,2
Re0.7W0.3,4.9,Re0.7 W0.3,"[Element Re, Element W]","{'Re': 0.7, 'W': 0.3}",Other,2
Re0.52W0.48,5.2,Re0.52 W0.48,"[Element Re, Element W]","{'Re': 0.52, 'W': 0.48}",Other,2
Re3V1,6.26,Re3 V1,"[Element Re, Element V]","{'Re': 3.0, 'V': 1.0}",Other,2
Fe3Re2,6.55,Fe3 Re2,"[Element Fe, Element Re]","{'Fe': 3.0, 'Re': 2.0}",Fe-based,2
Cr0.5Ru0.5,1.3,Cr0.5 Ru0.5,"[Element Cr, Element Ru]","{'Cr': 0.5, 'Ru': 0.5}",Other,2
Cr0.6Ru0.4,2.1,Cr0.6 Ru0.4,"[Element Cr, Element Ru]","{'Cr': 0.6, 'Ru': 0.4}",Other,2
Rh2Ta3,2.35,Rh2 Ta3,"[Element Rh, Element Ta]","{'Rh': 2.0, 'Ta': 3.0}",Other,2
Cr0.4Re0.6,2.15,Cr0.4 Re0.6,"[Element Cr, Element Re]","{'Cr': 0.4, 'Re': 0.6}",Other,2
Nb1Re3,5.27,Nb1 Re3,"[Element Nb, Element Re]","{'Nb': 1.0, 'Re': 3.0}",Other,2
Nb0.625Pt0.375,3.73,Nb0.625 Pt0.375,"[Element Nb, Element Pt]","{'Nb': 0.625, 'Pt': 0.375}",Other,2
Nb0.62Pt0.38,0.41,Nb0.62 Pt0.38,"[Element Nb, Element Pt]","{'Nb': 0.62, 'Pt': 0.38}",Other,2
Ir0.35Ta0.65,1.2,Ir0.35 Ta0.65,"[Element Ir, Element Ta]","{'Ir': 0.35, 'Ta': 0.65}",Other,2
Re0.6Ta0.4,1.4,Re0.6 Ta0.4,"[Element Re, Element Ta]","{'Re': 0.6, 'Ta': 0.4}",Other,2
Ca1Ir2,4.0,Ca1 Ir2,"[Element Ca, Element Ir]","{'Ca': 1.0, 'Ir': 2.0}",Other,2
Pt2Sr1,0.7,Pt2 Sr1,"[Element Pt, Element Sr]","{'Pt': 2.0, 'Sr': 1.0}",Other,2
Ir2Sc1,1.03,Ir2 Sc1,"[Element Ir, Element Sc]","{'Ir': 2.0, 'Sc': 1.0}",Other,2
Re2Sc1,4.2,Re2 Sc1,"[Element Re, Element Sc]","{'Re': 2.0, 'Sc': 1.0}",Other,2
Ru2Sc1.2,1.67,Ru2 Sc1.2,"[Element Ru, Element Sc]","{'Ru': 2.0, 'Sc': 1.2}",Other,2
Nb1Tc3,10.5,Nb1 Tc3,"[Element Nb, Element Tc]","{'Nb': 1.0, 'Tc': 3.0}",Other,2
Nb0.14Re0.86,8.5,Nb0.14 Re0.86,"[Element Nb, Element Re]","{'Nb': 0.14, 'Re': 0.86}",Other,2
Nb0.26Re0.74,7.2,Nb0.26 Re0.74,"[Element Nb, Element Re]","{'Nb': 0.26, 'Re': 0.74}",Other,2
Nb0.32Re0.68,4.5,Nb0.32 Re0.68,"[Element Nb, Element Re]","{'Nb': 0.32, 'Re': 0.68}",Other,2
Nb0.18Re0.82,9.7,Nb0.18 Re0.82,"[Element Nb, Element Re]","{'Nb': 0.18, 'Re': 0.82}",Other,2
Mo1Re4,7.85,Mo1 Re4,"[Element Mo, Element Re]","{'Mo': 1.0, 'Re': 4.0}",Other,2
Nb1Os1,2.86,Nb1 Os1,"[Element Nb, Element Os]","{'Nb': 1.0, 'Os': 1.0}",Other,2
Hf5Re24,4.3,Hf5 Re24,"[Element Hf, Element Re]","{'Hf': 5.0, 'Re': 24.0}",Other,2
Re0.64Ta0.36,1.46,Re0.64 Ta0.36,"[Element Re, Element Ta]","{'Re': 0.64, 'Ta': 0.36}",Other,2
Re3Ta1,4.75,Re3 Ta1,"[Element Re, Element Ta]","{'Re': 3.0, 'Ta': 1.0}",Other,2
Re24Sc5,2.2,Re24 Sc5,"[Element Re, Element Sc]","{'Re': 24.0, 'Sc': 5.0}",Other,2
Bi0.1Pt1Sb0.9,1.21,Bi0.1 Pt1 Sb0.9,"[Element Bi, Element Pt, Element Sb]","{'Bi': 0.1, 'Pt': 1.0, 'Sb': 0.9}",Other,3
Bi1Pt1,1.21,Bi1 Pt1,"[Element Bi, Element Pt]","{'Bi': 1.0, 'Pt': 1.0}",Other,2
Al2Cu1,1.02,Al2 Cu1,"[Element Al, Element Cu]","{'Al': 2.0, 'Cu': 1.0}",Other,2
Ag1In2,2.3,Ag1 In2,"[Element Ag, Element In]","{'Ag': 1.0, 'In': 2.0}",Other,2
Bi2Pb1,4.25,Bi2 Pb1,"[Element Bi, Element Pb]","{'Bi': 2.0, 'Pb': 1.0}",Other,2
Nb0.75Rh1.25,2.7,Nb0.75 Rh1.25,"[Element Nb, Element Rh]","{'Nb': 0.75, 'Rh': 1.25}",Other,2
Si1Th1,2.41,Si1 Th1,"[Element Si, Element Th]","{'Si': 1.0, 'Th': 1.0}",Other,2
Pb4Pt1,2.8,Pb4 Pt1,"[Element Pb, Element Pt]","{'Pb': 4.0, 'Pt': 1.0}",Other,2
Nb0.86Rh1.04,3.76,Nb0.86 Rh1.04,"[Element Nb, Element Rh]","{'Nb': 0.86, 'Rh': 1.04}",Other,2
Ag3.3Al1,0.34,Ag3.3 Al1,"[Element Ag, Element Al]","{'Ag': 3.3, 'Al': 1.0}",Other,2
Nb0.85Rh1.15,3.0,Nb0.85 Rh1.15,"[Element Nb, Element Rh]","{'Nb': 0.85, 'Rh': 1.15}",Other,2
Nb0.9Rh1.1,3.07,Nb0.9 Rh1.1,"[Element Nb, Element Rh]","{'Nb': 0.9, 'Rh': 1.1}",Other,2
Al3Tl1,0.75,Al3 Tl1,"[Element Al, Element Tl]","{'Al': 3.0, 'Tl': 1.0}",Other,2
Pt1Sn4,2.38,Pt1 Sn4,"[Element Pt, Element Sn]","{'Pt': 1.0, 'Sn': 4.0}",Other,2
In1Mg2,3.2,In1 Mg2,"[Element In, Element Mg]","{'In': 1.0, 'Mg': 2.0}",Other,2
Bi1In5,4.1,Bi1 In5,"[Element Bi, Element In]","{'Bi': 1.0, 'In': 5.0}",Other,2
Hg1Sn6,5.1,Hg1 Sn6,"[Element Hg, Element Sn]","{'Hg': 1.0, 'Sn': 6.0}",Other,2
Re1Ti1O5,5.71,Re1 Ti1 O5,"[Element Re, Element Ti, Element O]","{'Re': 1.0, 'Ti': 1.0, 'O': 5.0}",Other,3
Bi3Fe1,1.0,Bi3 Fe1,"[Element Bi, Element Fe]","{'Bi': 3.0, 'Fe': 1.0}",Fe-based,2
Bi1Mg1,0.7,Bi1 Mg1,"[Element Bi, Element Mg]","{'Bi': 1.0, 'Mg': 1.0}",Other,2
Bi4Mg1,1.0,Bi4 Mg1,"[Element Bi, Element Mg]","{'Bi': 4.0, 'Mg': 1.0}",Other,2
Ag1Bi1,2.78,Ag1 Bi1,"[Element Ag, Element Bi]","{'Ag': 1.0, 'Bi': 1.0}",Other,2
V2.7Nb0.3Si1,12.8,V2.7 Nb0.3 Si1,"[Element V, Element Nb, Element Si]","{'V': 2.7, 'Nb': 0.3, 'Si': 1.0}",Other,3
V2.7Ti0.3Si1,10.9,V2.7 Ti0.3 Si1,"[Element V, Element Ti, Element Si]","{'V': 2.7, 'Ti': 0.3, 'Si': 1.0}",Other,3
V2.7Mn0.3Si1,11.9,V2.7 Mn0.3 Si1,"[Element V, Element Mn, Element Si]","{'V': 2.7, 'Mn': 0.3, 'Si': 1.0}",Other,3
V2.4Mo0.6Si1,4.54,V2.4 Mo0.6 Si1,"[Element V, Element Mo, Element Si]","{'V': 2.4, 'Mo': 0.6, 'Si': 1.0}",Other,3
V2.52Mo0.48Si1,5.1,V2.52 Mo0.48 Si1,"[Element V, Element Mo, Element Si]","{'V': 2.52, 'Mo': 0.48, 'Si': 1.0}",Other,3
V2.79Mo0.21Si1,5.59,V2.79 Mo0.21 Si1,"[Element V, Element Mo, Element Si]","{'V': 2.79, 'Mo': 0.21, 'Si': 1.0}",Other,3
V2.91Mo0.09Si1,10.4,V2.91 Mo0.09 Si1,"[Element V, Element Mo, Element Si]","{'V': 2.91, 'Mo': 0.09, 'Si': 1.0}",Other,3
V2.964Mo0.036Si1,14.0,V2.964 Mo0.036 Si1,"[Element V, Element Mo, Element Si]","{'V': 2.964, 'Mo': 0.036, 'Si': 1.0}",Other,3
V2.97Mo0.03Si1,16.0,V2.97 Mo0.03 Si1,"[Element V, Element Mo, Element Si]","{'V': 2.97, 'Mo': 0.03, 'Si': 1.0}",Other,3
V2.7Cr0.3Si1,11.3,V2.7 Cr0.3 Si1,"[Element V, Element Cr, Element Si]","{'V': 2.7, 'Cr': 0.3, 'Si': 1.0}",Other,3
V3Si0.76Be0.24,15.6,V3 Si0.76 Be0.24,"[Element V, Element Si, Element Be]","{'V': 3.0, 'Si': 0.76, 'Be': 0.24}",Other,3
V3Si0.99Be0.01,16.6,V3 Si0.99 Be0.01,"[Element V, Element Si, Element Be]","{'V': 3.0, 'Si': 0.99, 'Be': 0.01}",Other,3
V3Si0.1Ga0.9,10.6,V3 Si0.1 Ga0.9,"[Element V, Element Si, Element Ga]","{'V': 3.0, 'Si': 0.1, 'Ga': 0.9}",Other,3
V3Si0.25Ga0.75,8.1,V3 Si0.25 Ga0.75,"[Element V, Element Si, Element Ga]","{'V': 3.0, 'Si': 0.25, 'Ga': 0.75}",Other,3
V2.979Co0.021Si1,16.4,V2.979 Co0.021 Si1,"[Element V, Element Co, Element Si]","{'V': 2.979, 'Co': 0.021, 'Si': 1.0}",Other,3
V2.7Ru0.3Si1,2.9,V2.7 Ru0.3 Si1,"[Element V, Element Ru, Element Si]","{'V': 2.7, 'Ru': 0.3, 'Si': 1.0}",Other,3
V2.94Fe0.06Si1,13.4,V2.94 Fe0.06 Si1,"[Element V, Element Fe, Element Si]","{'V': 2.94, 'Fe': 0.06, 'Si': 1.0}",Fe-based,3
V2.808Re0.192Si1,4.7,V2.808 Re0.192 Si1,"[Element V, Element Re, Element Si]","{'V': 2.808, 'Re': 0.192, 'Si': 1.0}",Other,3
V2.49Mn0.42Si1,8.1,V2.49 Mn0.42 Si1,"[Element V, Element Mn, Element Si]","{'V': 2.49, 'Mn': 0.42, 'Si': 1.0}",Other,3
V3Si0.46Ga0.54,7.4,V3 Si0.46 Ga0.54,"[Element V, Element Si, Element Ga]","{'V': 3.0, 'Si': 0.46, 'Ga': 0.54}",Other,3
V3Si0.52Ga0.48,7.8,V3 Si0.52 Ga0.48,"[Element V, Element Si, Element Ga]","{'V': 3.0, 'Si': 0.52, 'Ga': 0.48}",Other,3
V3Si0.68Ga0.32,9.4,V3 Si0.68 Ga0.32,"[Element V, Element Si, Element Ga]","{'V': 3.0, 'Si': 0.68, 'Ga': 0.32}",Other,3
V3Si0.72Ga0.28,10.5,V3 Si0.72 Ga0.28,"[Element V, Element Si, Element Ga]","{'V': 3.0, 'Si': 0.72, 'Ga': 0.28}",Other,3
V3Si0.79Ga0.21,10.7,V3 Si0.79 Ga0.21,"[Element V, Element Si, Element Ga]","{'V': 3.0, 'Si': 0.79, 'Ga': 0.21}",Other,3
V3Si0.87Ga0.13,13.3,V3 Si0.87 Ga0.13,"[Element V, Element Si, Element Ga]","{'V': 3.0, 'Si': 0.87, 'Ga': 0.13}",Other,3
V3Si0.6Al0.4,10.1,V3 Si0.6 Al0.4,"[Element V, Element Si, Element Al]","{'V': 3.0, 'Si': 0.6, 'Al': 0.4}",Other,3
V3Si0.76Al0.24,11.2,V3 Si0.76 Al0.24,"[Element V, Element Si, Element Al]","{'V': 3.0, 'Si': 0.76, 'Al': 0.24}",Other,3
V3Si0.98Al0.02,16.12,V3 Si0.98 Al0.02,"[Element V, Element Si, Element Al]","{'V': 3.0, 'Si': 0.98, 'Al': 0.02}",Other,3
V2.754Ti0.246Ga1,13.4,V2.754 Ti0.246 Ga1,"[Element V, Element Ti, Element Ga]","{'V': 2.754, 'Ti': 0.246, 'Ga': 1.0}",Other,3
V2.79Ce0.21Ga1,7.5,V2.79 Ce0.21 Ga1,"[Element V, Element Ce, Element Ga]","{'V': 2.79, 'Ce': 0.21, 'Ga': 1.0}",Other,3
V2.778La0.222Ga1,7.8,V2.778 La0.222 Ga1,"[Element V, Element La, Element Ga]","{'V': 2.778, 'La': 0.222, 'Ga': 1.0}",Other,3
V3Si0.986Sb0.014,10.5,V3 Si0.986 Sb0.014,"[Element V, Element Si, Element Sb]","{'V': 3.0, 'Si': 0.986, 'Sb': 0.014}",Other,3
V3Si0.2Sn0.8,6.4,V3 Si0.2 Sn0.8,"[Element V, Element Si, Element Sn]","{'V': 3.0, 'Si': 0.2, 'Sn': 0.8}",Other,3
V3Si0.4Sn0.6,9.8,V3 Si0.4 Sn0.6,"[Element V, Element Si, Element Sn]","{'V': 3.0, 'Si': 0.4, 'Sn': 0.6}",Other,3
V3Si0.6Sn0.4,9.7,V3 Si0.6 Sn0.4,"[Element V, Element Si, Element Sn]","{'V': 3.0, 'Si': 0.6, 'Sn': 0.4}",Other,3
V3Si0.8Sn0.2,12.85,V3 Si0.8 Sn0.2,"[Element V, Element Si, Element Sn]","{'V': 3.0, 'Si': 0.8, 'Sn': 0.2}",Other,3
V3Si0.2Ge0.8,6.1,V3 Si0.2 Ge0.8,"[Element V, Element Si, Element Ge]","{'V': 3.0, 'Si': 0.2, 'Ge': 0.8}",Other,3
V3Si0.4Ge0.6,7.2,V3 Si0.4 Ge0.6,"[Element V, Element Si, Element Ge]","{'V': 3.0, 'Si': 0.4, 'Ge': 0.6}",Other,3
V3Si0.6Ge0.4,8.7,V3 Si0.6 Ge0.4,"[Element V, Element Si, Element Ge]","{'V': 3.0, 'Si': 0.6, 'Ge': 0.4}",Other,3
V2.793Ni0.207Ga1,11.9,V2.793 Ni0.207 Ga1,"[Element V, Element Ni, Element Ga]","{'V': 2.793, 'Ni': 0.207, 'Ga': 1.0}",Other,3
V2.781Co0.219Ga1,8.4,V2.781 Co0.219 Ga1,"[Element V, Element Co, Element Ga]","{'V': 2.781, 'Co': 0.219, 'Ga': 1.0}",Other,3
V2.865Fe0.135Ga1,10.1,V2.865 Fe0.135 Ga1,"[Element V, Element Fe, Element Ga]","{'V': 2.865, 'Fe': 0.135, 'Ga': 1.0}",Fe-based,3
V2.928Re0.072Ga1,10.8,V2.928 Re0.072 Ga1,"[Element V, Element Re, Element Ga]","{'V': 2.928, 'Re': 0.072, 'Ga': 1.0}",Other,3
V2.898Mn0.102Ga1,9.0,V2.898 Mn0.102 Ga1,"[Element V, Element Mn, Element Ga]","{'V': 2.898, 'Mn': 0.102, 'Ga': 1.0}",Other,3
V2.883W0.117Ga1,11.5,V2.883 W0.117 Ga1,"[Element V, Element W, Element Ga]","{'V': 2.883, 'W': 0.117, 'Ga': 1.0}",Other,3
V2.799Mo0.201Ga1,11.7,V2.799 Mo0.201 Ga1,"[Element V, Element Mo, Element Ga]","{'V': 2.799, 'Mo': 0.201, 'Ga': 1.0}",Other,3
V2.799Cr0.201Ga1,12.6,V2.799 Cr0.201 Ga1,"[Element V, Element Cr, Element Ga]","{'V': 2.799, 'Cr': 0.201, 'Ga': 1.0}",Other,3
V2.802Ta0.198Ga1,12.3,V2.802 Ta0.198 Ga1,"[Element V, Element Ta, Element Ga]","{'V': 2.802, 'Ta': 0.198, 'Ga': 1.0}",Other,3
V2.814Nb0.186Ga1,13.5,V2.814 Nb0.186 Ga1,"[Element V, Element Nb, Element Ga]","{'V': 2.814, 'Nb': 0.186, 'Ga': 1.0}",Other,3
V2.739Hf0.261Ga1,6.4,V2.739 Hf0.261 Ga1,"[Element V, Element Hf, Element Ga]","{'V': 2.739, 'Hf': 0.261, 'Ga': 1.0}",Other,3
V0.5Nb2.5Sn1,14.2,V0.5 Nb2.5 Sn1,"[Element V, Element Nb, Element Sn]","{'V': 0.5, 'Nb': 2.5, 'Sn': 1.0}",Other,3
V1Nb2Sn1,9.8,V1 Nb2 Sn1,"[Element V, Element Nb, Element Sn]","{'V': 1.0, 'Nb': 2.0, 'Sn': 1.0}",Other,3
V1.5Nb1.5Sb1,7.4,V1.5 Nb1.5 Sb1,"[Element V, Element Nb, Element Sb]","{'V': 1.5, 'Nb': 1.5, 'Sb': 1.0}",Other,3
V2Nb1Sn1,5.5,V2 Nb1 Sn1,"[Element V, Element Nb, Element Sn]","{'V': 2.0, 'Nb': 1.0, 'Sn': 1.0}",Other,3
V3Ga0.975Bi0.025,14.7,V3 Ga0.975 Bi0.025,"[Element V, Element Ga, Element Bi]","{'V': 3.0, 'Ga': 0.975, 'Bi': 0.025}",Other,3
V3Ga0.793Sb0.207,6.9,V3 Ga0.793 Sb0.207,"[Element V, Element Ga, Element Sb]","{'V': 3.0, 'Ga': 0.793, 'Sb': 0.207}",Other,3
V0.003Ga0.974Pb0.026,13.2,V0.003 Ga0.974 Pb0.026,"[Element V, Element Ga, Element Pb]","{'V': 0.003, 'Ga': 0.974, 'Pb': 0.026}",Other,3
V3Ga0.78Sn0.22,6.9,V3 Ga0.78 Sn0.22,"[Element V, Element Ga, Element Sn]","{'V': 3.0, 'Ga': 0.78, 'Sn': 0.22}",Other,3
V3Ga0.957Ge0.043,13.1,V3 Ga0.957 Ge0.043,"[Element V, Element Ga, Element Ge]","{'V': 3.0, 'Ga': 0.957, 'Ge': 0.043}",Other,3
V3Ga0.937In0.063,11.5,V3 Ga0.937 In0.063,"[Element V, Element Ga, Element In]","{'V': 3.0, 'Ga': 0.937, 'In': 0.063}",Other,3
Nb3Sn0.8Ga0.2,17.8,Nb3 Sn0.8 Ga0.2,"[Element Nb, Element Sn, Element Ga]","{'Nb': 3.0, 'Sn': 0.8, 'Ga': 0.2}",Other,3
Nb3Sn0.9Ga0.1,18.1,Nb3 Sn0.9 Ga0.1,"[Element Nb, Element Sn, Element Ga]","{'Nb': 3.0, 'Sn': 0.9, 'Ga': 0.1}",Other,3
Nb2.85Mo0.15Al1,13.4,Nb2.85 Mo0.15 Al1,"[Element Nb, Element Mo, Element Al]","{'Nb': 2.85, 'Mo': 0.15, 'Al': 1.0}",Other,3
Nb1.71V1.29Au1,1.6,Nb1.71 V1.29 Au1,"[Element Nb, Element V, Element Au]","{'Nb': 1.71, 'V': 1.29, 'Au': 1.0}",Other,3
Nb2.01V0.99Au1,2.9,Nb2.01 V0.99 Au1,"[Element Nb, Element V, Element Au]","{'Nb': 2.01, 'V': 0.99, 'Au': 1.0}",Other,3
Nb2.25V0.75Au1,3.0,Nb2.25 V0.75 Au1,"[Element Nb, Element V, Element Au]","{'Nb': 2.25, 'V': 0.75, 'Au': 1.0}",Other,3
Nb2.49V0.51Au1,4.6,Nb2.49 V0.51 Au1,"[Element Nb, Element V, Element Au]","{'Nb': 2.49, 'V': 0.51, 'Au': 1.0}",Other,3
Nb2.55V0.45Au1,5.1,Nb2.55 V0.45 Au1,"[Element Nb, Element V, Element Au]","{'Nb': 2.55, 'V': 0.45, 'Au': 1.0}",Other,3
Nb2.9V0.3Au1,6.5,Nb2.9 V0.3 Au1,"[Element Nb, Element V, Element Au]","{'Nb': 2.9, 'V': 0.3, 'Au': 1.0}",Other,3
Nb2.85V0.15Au1,8.4,Nb2.85 V0.15 Au1,"[Element Nb, Element V, Element Au]","{'Nb': 2.85, 'V': 0.15, 'Au': 1.0}",Other,3
V1Ta2Sn1,3.7,V1 Ta2 Sn1,"[Element V, Element Ta, Element Sn]","{'V': 1.0, 'Ta': 2.0, 'Sn': 1.0}",Other,3
V2Ta1Sn1,2.8,V2 Ta1 Sn1,"[Element V, Element Ta, Element Sn]","{'V': 2.0, 'Ta': 1.0, 'Sn': 1.0}",Other,3
Nb3Rh0.02Au0.98,11.9,Nb3 Rh0.02 Au0.98,"[Element Nb, Element Rh, Element Au]","{'Nb': 3.0, 'Rh': 0.02, 'Au': 0.98}",Other,3
Nb3Rh0.05Au0.95,11.0,Nb3 Rh0.05 Au0.95,"[Element Nb, Element Rh, Element Au]","{'Nb': 3.0, 'Rh': 0.05, 'Au': 0.95}",Other,3
Nb3Rh0.1Au0.9,10.8,Nb3 Rh0.1 Au0.9,"[Element Nb, Element Rh, Element Au]","{'Nb': 3.0, 'Rh': 0.1, 'Au': 0.9}",Other,3
Nb3Rh0.3Au0.7,9.5,Nb3 Rh0.3 Au0.7,"[Element Nb, Element Rh, Element Au]","{'Nb': 3.0, 'Rh': 0.3, 'Au': 0.7}",Other,3
Nb3Rh0.5Au0.5,6.6,Nb3 Rh0.5 Au0.5,"[Element Nb, Element Rh, Element Au]","{'Nb': 3.0, 'Rh': 0.5, 'Au': 0.5}",Other,3
Nb3Rh0.7Au0.3,4.6,Nb3 Rh0.7 Au0.3,"[Element Nb, Element Rh, Element Au]","{'Nb': 3.0, 'Rh': 0.7, 'Au': 0.3}",Other,3
Nb3Sn0.56Ge0.44,6.8,Nb3 Sn0.56 Ge0.44,"[Element Nb, Element Sn, Element Ge]","{'Nb': 3.0, 'Sn': 0.56, 'Ge': 0.44}",Other,3
Nb3Sn0.73Ge0.27,8.2,Nb3 Sn0.73 Ge0.27,"[Element Nb, Element Sn, Element Ge]","{'Nb': 3.0, 'Sn': 0.73, 'Ge': 0.27}",Other,3
Nb3Sn0.81Ge0.19,14.3,Nb3 Sn0.81 Ge0.19,"[Element Nb, Element Sn, Element Ge]","{'Nb': 3.0, 'Sn': 0.81, 'Ge': 0.19}",Other,3
Nb3Sn0.2Ga0.8,13.1,Nb3 Sn0.2 Ga0.8,"[Element Nb, Element Sn, Element Ga]","{'Nb': 3.0, 'Sn': 0.2, 'Ga': 0.8}",Other,3
Nb3Sn0.4Ga0.6,14.6,Nb3 Sn0.4 Ga0.6,"[Element Nb, Element Sn, Element Ga]","{'Nb': 3.0, 'Sn': 0.4, 'Ga': 0.6}",Other,3
Nb3Sn0.6Ga0.4,16.0,Nb3 Sn0.6 Ga0.4,"[Element Nb, Element Sn, Element Ga]","{'Nb': 3.0, 'Sn': 0.6, 'Ga': 0.4}",Other,3
Nb3Sn0.98Al0.02,17.9,Nb3 Sn0.98 Al0.02,"[Element Nb, Element Sn, Element Al]","{'Nb': 3.0, 'Sn': 0.98, 'Al': 0.02}",Other,3
Nb1Ta2Sn1,10.8,Nb1 Ta2 Sn1,"[Element Nb, Element Ta, Element Sn]","{'Nb': 1.0, 'Ta': 2.0, 'Sn': 1.0}",Other,3
Nb2Ta1Sn1,16.4,Nb2 Ta1 Sn1,"[Element Nb, Element Ta, Element Sn]","{'Nb': 2.0, 'Ta': 1.0, 'Sn': 1.0}",Other,3
Nb2.5Ta0.5Sn1,17.6,Nb2.5 Ta0.5 Sn1,"[Element Nb, Element Ta, Element Sn]","{'Nb': 2.5, 'Ta': 0.5, 'Sn': 1.0}",Other,3
Nb2.75Ta0.25Sn1,17.8,Nb2.75 Ta0.25 Sn1,"[Element Nb, Element Ta, Element Sn]","{'Nb': 2.75, 'Ta': 0.25, 'Sn': 1.0}",Other,3
Nb0.9Mo2.1Al1,2.73,Nb0.9 Mo2.1 Al1,"[Element Nb, Element Mo, Element Al]","{'Nb': 0.9, 'Mo': 2.1, 'Al': 1.0}",Other,3
Nb1.2Mo1.8Al1,4.2,Nb1.2 Mo1.8 Al1,"[Element Nb, Element Mo, Element Al]","{'Nb': 1.2, 'Mo': 1.8, 'Al': 1.0}",Other,3
Nb1.5Mo1.5Al1,4.9,Nb1.5 Mo1.5 Al1,"[Element Nb, Element Mo, Element Al]","{'Nb': 1.5, 'Mo': 1.5, 'Al': 1.0}",Other,3
Nb2.1Mo0.9Al1,8.3,Nb2.1 Mo0.9 Al1,"[Element Nb, Element Mo, Element Al]","{'Nb': 2.1, 'Mo': 0.9, 'Al': 1.0}",Other,3
Nb2.7Mo0.3Al1,11.4,Nb2.7 Mo0.3 Al1,"[Element Nb, Element Mo, Element Al]","{'Nb': 2.7, 'Mo': 0.3, 'Al': 1.0}",Other,3
Nb3Rh0.95Co0.05,1.96,Nb3 Rh0.95 Co0.05,"[Element Nb, Element Rh, Element Co]","{'Nb': 3.0, 'Rh': 0.95, 'Co': 0.05}",Other,3
Nb3Rh0.98Co0.02,2.28,Nb3 Rh0.98 Co0.02,"[Element Nb, Element Rh, Element Co]","{'Nb': 3.0, 'Rh': 0.98, 'Co': 0.02}",Other,3
Nb3Sn0.1Al0.9,16.1,Nb3 Sn0.1 Al0.9,"[Element Nb, Element Sn, Element Al]","{'Nb': 3.0, 'Sn': 0.1, 'Al': 0.9}",Other,3
Nb3Sn0.2Al0.8,14.6,Nb3 Sn0.2 Al0.8,"[Element Nb, Element Sn, Element Al]","{'Nb': 3.0, 'Sn': 0.2, 'Al': 0.8}",Other,3
Nb3Sn0.4Al0.6,13.6,Nb3 Sn0.4 Al0.6,"[Element Nb, Element Sn, Element Al]","{'Nb': 3.0, 'Sn': 0.4, 'Al': 0.6}",Other,3
Nb3Sn0.6Al0.4,15.1,Nb3 Sn0.6 Al0.4,"[Element Nb, Element Sn, Element Al]","{'Nb': 3.0, 'Sn': 0.6, 'Al': 0.4}",Other,3
Nb3Sn0.61Al0.39,14.1,Nb3 Sn0.61 Al0.39,"[Element Nb, Element Sn, Element Al]","{'Nb': 3.0, 'Sn': 0.61, 'Al': 0.39}",Other,3
Nb3Sn0.8Al0.2,16.9,Nb3 Sn0.8 Al0.2,"[Element Nb, Element Sn, Element Al]","{'Nb': 3.0, 'Sn': 0.8, 'Al': 0.2}",Other,3
Nb3Sn0.81Al0.19,14.6,Nb3 Sn0.81 Al0.19,"[Element Nb, Element Sn, Element Al]","{'Nb': 3.0, 'Sn': 0.81, 'Al': 0.19}",Other,3
Nb3Sn0.9Al0.1,18.4,Nb3 Sn0.9 Al0.1,"[Element Nb, Element Sn, Element Al]","{'Nb': 3.0, 'Sn': 0.9, 'Al': 0.1}",Other,3
Nb3Sn0.92Al0.08,17.9,Nb3 Sn0.92 Al0.08,"[Element Nb, Element Sn, Element Al]","{'Nb': 3.0, 'Sn': 0.92, 'Al': 0.08}",Other,3
Nb3Sn0.94Al0.06,18.0,Nb3 Sn0.94 Al0.06,"[Element Nb, Element Sn, Element Al]","{'Nb': 3.0, 'Sn': 0.94, 'Al': 0.06}",Other,3
Nb3Sn0.96Al0.04,18.0,Nb3 Sn0.96 Al0.04,"[Element Nb, Element Sn, Element Al]","{'Nb': 3.0, 'Sn': 0.96, 'Al': 0.04}",Other,3
Nb3Al0.81Ge0.19,17.6,Nb3 Al0.81 Ge0.19,"[Element Nb, Element Al, Element Ge]","{'Nb': 3.0, 'Al': 0.81, 'Ge': 0.19}",Other,3
Nb3Sn0.3Sb0.7,6.8,Nb3 Sn0.3 Sb0.7,"[Element Nb, Element Sn, Element Sb]","{'Nb': 3.0, 'Sn': 0.3, 'Sb': 0.7}",Other,3
Nb3Sn0.35Sb0.65,10.5,Nb3 Sn0.35 Sb0.65,"[Element Nb, Element Sn, Element Sb]","{'Nb': 3.0, 'Sn': 0.35, 'Sb': 0.65}",Other,3
Nb3Sn0.4Sb0.6,12.4,Nb3 Sn0.4 Sb0.6,"[Element Nb, Element Sn, Element Sb]","{'Nb': 3.0, 'Sn': 0.4, 'Sb': 0.6}",Other,3
Nb3Sn0.6Sb0.4,15.8,Nb3 Sn0.6 Sb0.4,"[Element Nb, Element Sn, Element Sb]","{'Nb': 3.0, 'Sn': 0.6, 'Sb': 0.4}",Other,3
Nb3Sn0.8Ge0.2,18.0,Nb3 Sn0.8 Ge0.2,"[Element Nb, Element Sn, Element Ge]","{'Nb': 3.0, 'Sn': 0.8, 'Ge': 0.2}",Other,3
Nb3Sn0.39Ge0.61,7.6,Nb3 Sn0.39 Ge0.61,"[Element Nb, Element Sn, Element Ge]","{'Nb': 3.0, 'Sn': 0.39, 'Ge': 0.61}",Other,3
Nb3Sn0.5Ge0.5,12.6,Nb3 Sn0.5 Ge0.5,"[Element Nb, Element Sn, Element Ge]","{'Nb': 3.0, 'Sn': 0.5, 'Ge': 0.5}",Other,3
Nb3Rh0.9Co0.1,1.9,Nb3 Rh0.9 Co0.1,"[Element Nb, Element Rh, Element Co]","{'Nb': 3.0, 'Rh': 0.9, 'Co': 0.1}",Other,3
Nb3Rh0.9Au0.1,2.7,Nb3 Rh0.9 Au0.1,"[Element Nb, Element Rh, Element Au]","{'Nb': 3.0, 'Rh': 0.9, 'Au': 0.1}",Other,3