chemical_formula,Tc,composition,elements,stoichiometry,Category,num_elements
Eu1.3Ce0.7Sr2Ru1Cu2O10,33.0,Eu1.3 Ce0.7 Sr2 Ru1 Cu2 O10,"[Element Eu, Element Ce, Element Sr, Element Ru, Element Cu, Element O]","{'Eu': 1.3, 'Ce': 0.7, 'Sr': 2.0, 'Ru': 1.0, 'Cu': 2.0, 'O': 10.0}",Cuprates,6
Eu1.2Ce0.8Sr2Ru1Cu2O10,30.0,Eu1.2 Ce0.8 Sr2 Ru1 Cu2 O10,"[Element Eu, Element Ce, Element Sr, Element Ru, Element Cu, Element O]","{'Eu': 1.2, 'Ce': 0.8, 'Sr': 2.0, 'Ru': 1.0, 'Cu': 2.0, 'O': 10.0}",Cuprates,6
Sr4Ca10Cu24O41,4.0,Sr4 Ca10 Cu24 O41,"[Element Sr, Element Ca, Element Cu, Element O]","{'Sr': 4.0, 'Ca': 10.0, 'Cu': 24.0, 'O': 41.0}",Cuprates,4
Na0.33V2O5,8.0,Na0.33 V2 O5,"[Element Na, Element V, Element O]","{'Na': 0.33, 'V': 2.0, 'O': 5.0}",Other,3
La1.81Ho0.04Sr0.15Cu1O4,32.0,La1.81 Ho0.04 Sr0.15 Cu1 O4,"[Element La, Element Ho, Element Sr, Element Cu, Element O]","{'La': 1.81, 'Ho': 0.04, 'Sr': 0.15, 'Cu': 1.0, 'O': 4.0}",Cuprates,5
Ba0.635K0.365Bi1O3,30.4,Ba0.635 K0.365 Bi1 O3,"[Element Ba, Element K, Element Bi, Element O]","{'Ba': 0.635, 'K': 0.365, 'Bi': 1.0, 'O': 3.0}",Other,4
Ba0.557K0.443Bi1O3,25.0,Ba0.557 K0.443 Bi1 O3,"[Element Ba, Element K, Element Bi, Element O]","{'Ba': 0.557, 'K': 0.443, 'Bi': 1.0, 'O': 3.0}",Other,4
Ba0.445K0.555Bi1O3,14.0,Ba0.445 K0.555 Bi1 O3,"[Element Ba, Element K, Element Bi, Element O]","{'Ba': 0.445, 'K': 0.555, 'Bi': 1.0, 'O': 3.0}",Other,4
Ba0.34K0.66Bi1O3,7.0,Ba0.34 K0.66 Bi1 O3,"[Element Ba, Element K, Element Bi, Element O]","{'Ba': 0.34, 'K': 0.66, 'Bi': 1.0, 'O': 3.0}",Other,4
K0.915Bi1.085O3,9.0,K0.915 Bi1.085 O3,"[Element K, Element Bi, Element O]","{'K': 0.915, 'Bi': 1.085, 'O': 3.0}",Other,3
Ba0.33K0.67Bi1O3,0.77,Ba0.33 K0.67 Bi1 O3,"[Element Ba, Element K, Element Bi, Element O]","{'Ba': 0.33, 'K': 0.67, 'Bi': 1.0, 'O': 3.0}",Other,4
Ba0.35K0.65Bi1O3,1.88,Ba0.35 K0.65 Bi1 O3,"[Element Ba, Element K, Element Bi, Element O]","{'Ba': 0.35, 'K': 0.65, 'Bi': 1.0, 'O': 3.0}",Other,4
Ba0.4K0.6Bi1O3,7.2,Ba0.4 K0.6 Bi1 O3,"[Element Ba, Element K, Element Bi, Element O]","{'Ba': 0.4, 'K': 0.6, 'Bi': 1.0, 'O': 3.0}",Other,4
Ba0.45K0.55Bi1O3,12.7,Ba0.45 K0.55 Bi1 O3,"[Element Ba, Element K, Element Bi, Element O]","{'Ba': 0.45, 'K': 0.55, 'Bi': 1.0, 'O': 3.0}",Other,4
Ba0.644K0.356Bi1O3,29.0,Ba0.644 K0.356 Bi1 O3,"[Element Ba, Element K, Element Bi, Element O]","{'Ba': 0.644, 'K': 0.356, 'Bi': 1.0, 'O': 3.0}",Other,4
Ba0.613K0.387Bi1O3,30.7,Ba0.613 K0.387 Bi1 O3,"[Element Ba, Element K, Element Bi, Element O]","{'Ba': 0.613, 'K': 0.387, 'Bi': 1.0, 'O': 3.0}",Other,4
Ba0.584K0.416Bi1O3,28.8,Ba0.584 K0.416 Bi1 O3,"[Element Ba, Element K, Element Bi, Element O]","{'Ba': 0.584, 'K': 0.416, 'Bi': 1.0, 'O': 3.0}",Other,4
Ba0.553K0.447Bi1O3,25.5,Ba0.553 K0.447 Bi1 O3,"[Element Ba, Element K, Element Bi, Element O]","{'Ba': 0.553, 'K': 0.447, 'Bi': 1.0, 'O': 3.0}",Other,4
Ba0.542K0.458Bi1O3,23.1,Ba0.542 K0.458 Bi1 O3,"[Element Ba, Element K, Element Bi, Element O]","{'Ba': 0.542, 'K': 0.458, 'Bi': 1.0, 'O': 3.0}",Other,4
Ba0.595K0.405Bi1O3,31.2,Ba0.595 K0.405 Bi1 O3,"[Element Ba, Element K, Element Bi, Element O]","{'Ba': 0.595, 'K': 0.405, 'Bi': 1.0, 'O': 3.0}",Other,4
Ba0.665K0.335Bi1O2.985,27.3,Ba0.665 K0.335 Bi1 O2.985,"[Element Ba, Element K, Element Bi, Element O]","{'Ba': 0.665, 'K': 0.335, 'Bi': 1.0, 'O': 2.985}",Other,4
Ba0.6K0.4Bi1O2.977,29.0,Ba0.6 K0.4 Bi1 O2.977,"[Element Ba, Element K, Element Bi, Element O]","{'Ba': 0.6, 'K': 0.4, 'Bi': 1.0, 'O': 2.977}",Other,4
Ba0.57K0.43Bi1O2.983,25.6,Ba0.57 K0.43 Bi1 O2.983,"[Element Ba, Element K, Element Bi, Element O]","{'Ba': 0.57, 'K': 0.43, 'Bi': 1.0, 'O': 2.983}",Other,4
Ba0.51K0.49Bi1O2.974,22.2,Ba0.51 K0.49 Bi1 O2.974,"[Element Ba, Element K, Element Bi, Element O]","{'Ba': 0.51, 'K': 0.49, 'Bi': 1.0, 'O': 2.974}",Other,4
Ba0.46K0.56Bi1O2.965,14.8,Ba0.46 K0.56 Bi1 O2.965,"[Element Ba, Element K, Element Bi, Element O]","{'Ba': 0.46, 'K': 0.56, 'Bi': 1.0, 'O': 2.965}",Other,4
Ba0.37K0.63Bi1O2.952,8.71,Ba0.37 K0.63 Bi1 O2.952,"[Element Ba, Element K, Element Bi, Element O]","{'Ba': 0.37, 'K': 0.63, 'Bi': 1.0, 'O': 2.952}",Other,4
Hg0.85Re0.15Ba2Ca2Cu3O8,132.9,Hg0.85 Re0.15 Ba2 Ca2 Cu3 O8,"[Element Hg, Element Re, Element Ba, Element Ca, Element Cu, Element O]","{'Hg': 0.85, 'Re': 0.15, 'Ba': 2.0, 'Ca': 2.0, 'Cu': 3.0, 'O': 8.0}",Cuprates,6
Hg0.85Re0.15Ba1.66Sr0.34Ca2Cu3O8,131.3,Hg0.85 Re0.15 Ba1.66 Sr0.34 Ca2 Cu3 O8,"[Element Hg, Element Re, Element Ba, Element Sr, Element Ca, Element Cu, Element O]","{'Hg': 0.85, 'Re': 0.15, 'Ba': 1.66, 'Sr': 0.34, 'Ca': 2.0, 'Cu': 3.0, 'O': 8.0}",Cuprates,7
Hg0.85Re0.15Ba1.6Sr0.4Ca2Cu3O8,130.3,Hg0.85 Re0.15 Ba1.6 Sr0.4 Ca2 Cu3 O8,"[Element Hg, Element Re, Element Ba, Element Sr, Element Ca, Element Cu, Element O]","{'Hg': 0.85, 'Re': 0.15, 'Ba': 1.6, 'Sr': 0.4, 'Ca': 2.0, 'Cu': 3.0, 'O': 8.0}",Cuprates,7
Hg0.85Re0.15Ba1.44Sr0.56Ca2Cu3O8,128.7,Hg0.85 Re0.15 Ba1.44 Sr0.56 Ca2 Cu3 O8,"[Element Hg, Element Re, Element Ba, Element Sr, Element Ca, Element Cu, Element O]","{'Hg': 0.85, 'Re': 0.15, 'Ba': 1.44, 'Sr': 0.56, 'Ca': 2.0, 'Cu': 3.0, 'O': 8.0}",Cuprates,7
Bi2.2Sr1.72La0.08Ca1Cu2O8,60.5,Bi2.2 Sr1.72 La0.08 Ca1 Cu2 O8,"[Element Bi, Element Sr, Element La, Element Ca, Element Cu, Element O]","{'Bi': 2.2, 'Sr': 1.72, 'La': 0.08, 'Ca': 1.0, 'Cu': 2.0, 'O': 8.0}",Cuprates,6
Bi1.7Pb0.3Sr2Ca1Cu2O8,80.0,Bi1.7 Pb0.3 Sr2 Ca1 Cu2 O8,"[Element Bi, Element Pb, Element Sr, Element Ca, Element Cu, Element O]","{'Bi': 1.7, 'Pb': 0.3, 'Sr': 2.0, 'Ca': 1.0, 'Cu': 2.0, 'O': 8.0}",Cuprates,6
La1.7Sr0.3Cu1O3.997,10.2,La1.7 Sr0.3 Cu1 O3.997,"[Element La, Element Sr, Element Cu, Element O]","{'La': 1.7, 'Sr': 0.3, 'Cu': 1.0, 'O': 3.997}",Cuprates,4
Sm1Ba2Cu3O6.858,90.0,Sm1 Ba2 Cu3 O6.858,"[Element Sm, Element Ba, Element Cu, Element O]","{'Sm': 1.0, 'Ba': 2.0, 'Cu': 3.0, 'O': 6.858}",Cuprates,4
Tm1Ba2Cu3O6.71,78.0,Tm1 Ba2 Cu3 O6.71,"[Element Tm, Element Ba, Element Cu, Element O]","{'Tm': 1.0, 'Ba': 2.0, 'Cu': 3.0, 'O': 6.71}",Cuprates,4
Pr0.91La1Ce0.09Cu1O4,25.2,Pr0.91 La1 Ce0.09 Cu1 O4,"[Element Pr, Element La, Element Ce, Element Cu, Element O]","{'Pr': 0.91, 'La': 1.0, 'Ce': 0.09, 'Cu': 1.0, 'O': 4.0}",Cuprates,5
Pr0.89La1Ce0.11Cu1O4,24.6,Pr0.89 La1 Ce0.11 Cu1 O4,"[Element Pr, Element La, Element Ce, Element Cu, Element O]","{'Pr': 0.89, 'La': 1.0, 'Ce': 0.11, 'Cu': 1.0, 'O': 4.0}",Cuprates,5
Pr0.85La1Ce0.15Cu1O4,24.0,Pr0.85 La1 Ce0.15 Cu1 O4,"[Element Pr, Element La, Element Ce, Element Cu, Element O]","{'Pr': 0.85, 'La': 1.0, 'Ce': 0.15, 'Cu': 1.0, 'O': 4.0}",Cuprates,5
Pr0.83La1Ce0.17Cu1O4,19.8,Pr0.83 La1 Ce0.17 Cu1 O4,"[Element Pr, Element La, Element Ce, Element Cu, Element O]","{'Pr': 0.83, 'La': 1.0, 'Ce': 0.17, 'Cu': 1.0, 'O': 4.0}",Cuprates,5
Pr0.82La1Ce0.18Cu1O4,16.2,Pr0.82 La1 Ce0.18 Cu1 O4,"[Element Pr, Element La, Element Ce, Element Cu, Element O]","{'Pr': 0.82, 'La': 1.0, 'Ce': 0.18, 'Cu': 1.0, 'O': 4.0}",Cuprates,5
Pr0.8La1Ce0.2Cu1O4,15.6,Pr0.8 La1 Ce0.2 Cu1 O4,"[Element Pr, Element La, Element Ce, Element Cu, Element O]","{'Pr': 0.8, 'La': 1.0, 'Ce': 0.2, 'Cu': 1.0, 'O': 4.0}",Cuprates,5
Ba0.61K0.39Bi1O3,31.5,Ba0.61 K0.39 Bi1 O3,"[Element Ba, Element K, Element Bi, Element O]","{'Ba': 0.61, 'K': 0.39, 'Bi': 1.0, 'O': 3.0}",Other,4
Ba0.6K0.4O3,30.8,Ba0.6 K0.4 O3,"[Element Ba, Element K, Element O]","{'Ba': 0.6, 'K': 0.4, 'O': 3.0}",Other,3
La1.937Sr0.063Cu1O4,11.7,La1.937 Sr0.063 Cu1 O4,"[Element La, Element Sr, Element Cu, Element O]","{'La': 1.937, 'Sr': 0.063, 'Cu': 1.0, 'O': 4.0}",Cuprates,4
La1.889Sr0.111Cu1O4,29.2,La1.889 Sr0.111 Cu1 O4,"[Element La, Element Sr, Element Cu, Element O]","{'La': 1.889, 'Sr': 0.111, 'Cu': 1.0, 'O': 4.0}",Cuprates,4
Ru0.9Sn0.1Sr2Eu1Cu2O8,16.0,Ru0.9 Sn0.1 Sr2 Eu1 Cu2 O8,"[Element Ru, Element Sn, Element Sr, Element Eu, Element Cu, Element O]","{'Ru': 0.9, 'Sn': 0.1, 'Sr': 2.0, 'Eu': 1.0, 'Cu': 2.0, 'O': 8.0}",Cuprates,6
Ru0.7Sn0.3Sr2Eu1Cu2O8,20.0,Ru0.7 Sn0.3 Sr2 Eu1 Cu2 O8,"[Element Ru, Element Sn, Element Sr, Element Eu, Element Cu, Element O]","{'Ru': 0.7, 'Sn': 0.3, 'Sr': 2.0, 'Eu': 1.0, 'Cu': 2.0, 'O': 8.0}",Cuprates,6
Bi2Sr2.08Ca0.92Cu2O8,95.3,Bi2 Sr2.08 Ca0.92 Cu2 O8,"[Element Bi, Element Sr, Element Ca, Element Cu, Element O]","{'Bi': 2.0, 'Sr': 2.08, 'Ca': 0.92, 'Cu': 2.0, 'O': 8.0}",Cuprates,5
Bi2Sr2.2Ca0.8Cu2O8,89.9,Bi2 Sr2.2 Ca0.8 Cu2 O8,"[Element Bi, Element Sr, Element Ca, Element Cu, Element O]","{'Bi': 2.0, 'Sr': 2.2, 'Ca': 0.8, 'Cu': 2.0, 'O': 8.0}",Cuprates,5
Bi2Sr2.4Ca0.6Cu2O8,94.2,Bi2 Sr2.4 Ca0.6 Cu2 O8,"[Element Bi, Element Sr, Element Ca, Element Cu, Element O]","{'Bi': 2.0, 'Sr': 2.4, 'Ca': 0.6, 'Cu': 2.0, 'O': 8.0}",Cuprates,5
Bi2Sr2.65Ca0.35Cu2O8,93.6,Bi2 Sr2.65 Ca0.35 Cu2 O8,"[Element Bi, Element Sr, Element Ca, Element Cu, Element O]","{'Bi': 2.0, 'Sr': 2.65, 'Ca': 0.35, 'Cu': 2.0, 'O': 8.0}",Cuprates,5
Bi2Sr3Cu2O8,91.5,Bi2 Sr3 Cu2 O8,"[Element Bi, Element Sr, Element Cu, Element O]","{'Bi': 2.0, 'Sr': 3.0, 'Cu': 2.0, 'O': 8.0}",Cuprates,4
La1.75Pr0.1Sr0.15Cu1O4,37.4,La1.75 Pr0.1 Sr0.15 Cu1 O4,"[Element La, Element Pr, Element Sr, Element Cu, Element O]","{'La': 1.75, 'Pr': 0.1, 'Sr': 0.15, 'Cu': 1.0, 'O': 4.0}",Cuprates,5
La1.35Pr0.5Sr0.15Cu1O4,34.3,La1.35 Pr0.5 Sr0.15 Cu1 O4,"[Element La, Element Pr, Element Sr, Element Cu, Element O]","{'La': 1.35, 'Pr': 0.5, 'Sr': 0.15, 'Cu': 1.0, 'O': 4.0}",Cuprates,5
La0.85Pr1Sr0.15Cu1O4,32.6,La0.85 Pr1 Sr0.15 Cu1 O4,"[Element La, Element Pr, Element Sr, Element Cu, Element O]","{'La': 0.85, 'Pr': 1.0, 'Sr': 0.15, 'Cu': 1.0, 'O': 4.0}",Cuprates,5
La0.65Pr1.2Sr0.15Cu1O4,31.4,La0.65 Pr1.2 Sr0.15 Cu1 O4,"[Element La, Element Pr, Element Sr, Element Cu, Element O]","{'La': 0.65, 'Pr': 1.2, 'Sr': 0.15, 'Cu': 1.0, 'O': 4.0}",Cuprates,5
La0.55Pr1.3Sr0.15Cu1O4,29.6,La0.55 Pr1.3 Sr0.15 Cu1 O4,"[Element La, Element Pr, Element Sr, Element Cu, Element O]","{'La': 0.55, 'Pr': 1.3, 'Sr': 0.15, 'Cu': 1.0, 'O': 4.0}",Cuprates,5
La1.85Sr0.15Cu0.99Fe0.01O4,33.0,La1.85 Sr0.15 Cu0.99 Fe0.01 O4,"[Element La, Element Sr, Element Cu, Element Fe, Element O]","{'La': 1.85, 'Sr': 0.15, 'Cu': 0.99, 'Fe': 0.01, 'O': 4.0}",Cuprates,5
La1.83Sr0.17Cu0.98Fe0.02O4,31.0,La1.83 Sr0.17 Cu0.98 Fe0.02 O4,"[Element La, Element Sr, Element Cu, Element Fe, Element O]","{'La': 1.83, 'Sr': 0.17, 'Cu': 0.98, 'Fe': 0.02, 'O': 4.0}",Cuprates,5
La1.82Sr0.18Cu0.97Fe0.03O4,29.0,La1.82 Sr0.18 Cu0.97 Fe0.03 O4,"[Element La, Element Sr, Element Cu, Element Fe, Element O]","{'La': 1.82, 'Sr': 0.18, 'Cu': 0.97, 'Fe': 0.03, 'O': 4.0}",Cuprates,5
Sr11Ca10Cu24O41,3.0,Sr11 Ca10 Cu24 O41,"[Element Sr, Element Ca, Element Cu, Element O]","{'Sr': 11.0, 'Ca': 10.0, 'Cu': 24.0, 'O': 41.0}",Cuprates,4
Sr11Ca12Cu24O41,5.0,Sr11 Ca12 Cu24 O41,"[Element Sr, Element Ca, Element Cu, Element O]","{'Sr': 11.0, 'Ca': 12.0, 'Cu': 24.0, 'O': 41.0}",Cuprates,4
La1.84Sr0.16Cu0.99Mn0.01O4,30.4,La1.84 Sr0.16 Cu0.99 Mn0.01 O4,"[Element La, Element Sr, Element Cu, Element Mn, Element O]","{'La': 1.84, 'Sr': 0.16, 'Cu': 0.99, 'Mn': 0.01, 'O': 4.0}",Cuprates,5
La1.83Sr0.17Cu0.98Mn0.02O4,18.1,La1.83 Sr0.17 Cu0.98 Mn0.02 O4,"[Element La, Element Sr, Element Cu, Element Mn, Element O]","{'La': 1.83, 'Sr': 0.17, 'Cu': 0.98, 'Mn': 0.02, 'O': 4.0}",Cuprates,5
Na0.31Co1H2.6O3.3,4.3,Na0.31 Co1 H2.6 O3.3,"[Element Na, Element Co, Element H, Element O]","{'Na': 0.31, 'Co': 1.0, 'H': 2.6, 'O': 3.3}",Hydrides,4
Bi2Sr2Ca0.9Er0.1Cu2O8,87.0,Bi2 Sr2 Ca0.9 Er0.1 Cu2 O8,"[Element Bi, Element Sr, Element Ca, Element Er, Element Cu, Element O]","{'Bi': 2.0, 'Sr': 2.0, 'Ca': 0.9, 'Er': 0.1, 'Cu': 2.0, 'O': 8.0}",Cuprates,6
Bi2Sr2Ca0.75Pr0.25Cu2O8,88.0,Bi2 Sr2 Ca0.75 Pr0.25 Cu2 O8,"[Element Bi, Element Sr, Element Ca, Element Pr, Element Cu, Element O]","{'Bi': 2.0, 'Sr': 2.0, 'Ca': 0.75, 'Pr': 0.25, 'Cu': 2.0, 'O': 8.0}",Cuprates,6
Bi2Sr2Ca0.57Pr0.43Cu2O8,48.0,Bi2 Sr2 Ca0.57 Pr0.43 Cu2 O8,"[Element Bi, Element Sr, Element Ca, Element Pr, Element Cu, Element O]","{'Bi': 2.0, 'Sr': 2.0, 'Ca': 0.57, 'Pr': 0.43, 'Cu': 2.0, 'O': 8.0}",Cuprates,6
La0.68Eu0.2Sr0.12Cu1O4,5.0,La0.68 Eu0.2 Sr0.12 Cu1 O4,"[Element La, Element Eu, Element Sr, Element Cu, Element O]","{'La': 0.68, 'Eu': 0.2, 'Sr': 0.12, 'Cu': 1.0, 'O': 4.0}",Cuprates,5
Ru1Sr2Sm1Cu2O8,12.0,Ru1 Sr2 Sm1 Cu2 O8,"[Element Ru, Element Sr, Element Sm, Element Cu, Element O]","{'Ru': 1.0, 'Sr': 2.0, 'Sm': 1.0, 'Cu': 2.0, 'O': 8.0}",Cuprates,5
Ba0.19K0.81Bi1O3,8.4,Ba0.19 K0.81 Bi1 O3,"[Element Ba, Element K, Element Bi, Element O]","{'Ba': 0.19, 'K': 0.81, 'Bi': 1.0, 'O': 3.0}",Other,4
Ba0.6Rb0.4Bi1O3,29.0,Ba0.6 Rb0.4 Bi1 O3,"[Element Ba, Element Rb, Element Bi, Element O]","{'Ba': 0.6, 'Rb': 0.4, 'Bi': 1.0, 'O': 3.0}",Other,4
Tl0.5Pb0.5Sr2Eu1.8Ce0.2Cu2O9,40.0,Tl0.5 Pb0.5 Sr2 Eu1.8 Ce0.2 Cu2 O9,"[Element Tl, Element Pb, Element Sr, Element Eu, Element Ce, Element Cu, Element O]","{'Tl': 0.5, 'Pb': 0.5, 'Sr': 2.0, 'Eu': 1.8, 'Ce': 0.2, 'Cu': 2.0, 'O': 9.0}",Cuprates,7
La1.95Bi0.05Cu1O4.075,25.7,La1.95 Bi0.05 Cu1 O4.075,"[Element La, Element Bi, Element Cu, Element O]","{'La': 1.95, 'Bi': 0.05, 'Cu': 1.0, 'O': 4.075}",Cuprates,4
La1.81Sr0.19Cu0.98Mn0.02O4,37.0,La1.81 Sr0.19 Cu0.98 Mn0.02 O4,"[Element La, Element Sr, Element Cu, Element Mn, Element O]","{'La': 1.81, 'Sr': 0.19, 'Cu': 0.98, 'Mn': 0.02, 'O': 4.0}",Cuprates,5
La1.77Sr0.23Cu0.96Mn0.04O4,37.0,La1.77 Sr0.23 Cu0.96 Mn0.04 O4,"[Element La, Element Sr, Element Cu, Element Mn, Element O]","{'La': 1.77, 'Sr': 0.23, 'Cu': 0.96, 'Mn': 0.04, 'O': 4.0}",Cuprates,5
La1.73Sr0.27Cu0.94Mn0.06O4,37.0,La1.73 Sr0.27 Cu0.94 Mn0.06 O4,"[Element La, Element Sr, Element Cu, Element Mn, Element O]","{'La': 1.73, 'Sr': 0.27, 'Cu': 0.94, 'Mn': 0.06, 'O': 4.0}",Cuprates,5
La1Ba2Cu3O6.95,74.0,La1 Ba2 Cu3 O6.95,"[Element La, Element Ba, Element Cu, Element O]","{'La': 1.0, 'Ba': 2.0, 'Cu': 3.0, 'O': 6.95}",Cuprates,4
Mo1Sr2Sm1.5Ce1Cu2O10,18.0,Mo1 Sr2 Sm1.5 Ce1 Cu2 O10,"[Element Mo, Element Sr, Element Sm, Element Ce, Element Cu, Element O]","{'Mo': 1.0, 'Sr': 2.0, 'Sm': 1.5, 'Ce': 1.0, 'Cu': 2.0, 'O': 10.0}",Cuprates,6
Mo1Sr2Eu1.5Ce1Cu2O10,23.0,Mo1 Sr2 Eu1.5 Ce1 Cu2 O10,"[Element Mo, Element Sr, Element Eu, Element Ce, Element Cu, Element O]","{'Mo': 1.0, 'Sr': 2.0, 'Eu': 1.5, 'Ce': 1.0, 'Cu': 2.0, 'O': 10.0}",Cuprates,6
Pr1.87Ce0.13Cu1O4,10.0,Pr1.87 Ce0.13 Cu1 O4,"[Element Pr, Element Ce, Element Cu, Element O]","{'Pr': 1.87, 'Ce': 0.13, 'Cu': 1.0, 'O': 4.0}",Cuprates,4
Pr1.86Ce0.14Cu1O4,21.0,Pr1.86 Ce0.14 Cu1 O4,"[Element Pr, Element Ce, Element Cu, Element O]","{'Pr': 1.86, 'Ce': 0.14, 'Cu': 1.0, 'O': 4.0}",Cuprates,4
Pr1.83Ce0.17Cu1O4,13.0,Pr1.83 Ce0.17 Cu1 O4,"[Element Pr, Element Ce, Element Cu, Element O]","{'Pr': 1.83, 'Ce': 0.17, 'Cu': 1.0, 'O': 4.0}",Cuprates,4
Pr1.8Ce0.2Cu1O4,6.0,Pr1.8 Ce0.2 Cu1 O4,"[Element Pr, Element Ce, Element Cu, Element O]","{'Pr': 1.8, 'Ce': 0.2, 'Cu': 1.0, 'O': 4.0}",Cuprates,4
La1.95Bi0.05Cu1O4.0635,34.9,La1.95 Bi0.05 Cu1 O4.0635,"[Element La, Element Bi, Element Cu, Element O]","{'La': 1.95, 'Bi': 0.05, 'Cu': 1.0, 'O': 4.0635}",Cuprates,4
La1.8Pr0.2Cu1O4.0631,20.2,La1.8 Pr0.2 Cu1 O4.0631,"[Element La, Element Pr, Element Cu, Element O]","{'La': 1.8, 'Pr': 0.2, 'Cu': 1.0, 'O': 4.0631}",Cuprates,4
Ru0.9Sr2Er1Cu2O7.8,23.0,Ru0.9 Sr2 Er1 Cu2 O7.8,"[Element Ru, Element Sr, Element Er, Element Cu, Element O]","{'Ru': 0.9, 'Sr': 2.0, 'Er': 1.0, 'Cu': 2.0, 'O': 7.8}",Cuprates,5
Na0.75Co1H2.6O3.3,4.5,Na0.75 Co1 H2.6 O3.3,"[Element Na, Element Co, Element H, Element O]","{'Na': 0.75, 'Co': 1.0, 'H': 2.6, 'O': 3.3}",Hydrides,4
Ru1Sr1.98La0.02Eu1Cu2O8,14.0,Ru1 Sr1.98 La0.02 Eu1 Cu2 O8,"[Element Ru, Element Sr, Element La, Element Eu, Element Cu, Element O]","{'Ru': 1.0, 'Sr': 1.98, 'La': 0.02, 'Eu': 1.0, 'Cu': 2.0, 'O': 8.0}",Cuprates,6
Ru1Sr1.94La0.06Eu1Cu2O8,7.0,Ru1 Sr1.94 La0.06 Eu1 Cu2 O8,"[Element Ru, Element Sr, Element La, Element Eu, Element Cu, Element O]","{'Ru': 1.0, 'Sr': 1.94, 'La': 0.06, 'Eu': 1.0, 'Cu': 2.0, 'O': 8.0}",Cuprates,6
La1.83Sr0.15Na0.02Cu1O4,37.0,La1.83 Sr0.15 Na0.02 Cu1 O4,"[Element La, Element Sr, Element Na, Element Cu, Element O]","{'La': 1.83, 'Sr': 0.15, 'Na': 0.02, 'Cu': 1.0, 'O': 4.0}",Cuprates,5
La1.8Sr0.15Na0.05Cu1O4,37.0,La1.8 Sr0.15 Na0.05 Cu1 O4,"[Element La, Element Sr, Element Na, Element Cu, Element O]","{'La': 1.8, 'Sr': 0.15, 'Na': 0.05, 'Cu': 1.0, 'O': 4.0}",Cuprates,5
La1.75Sr0.15Na0.1Cu1O4,37.0,La1.75 Sr0.15 Na0.1 Cu1 O4,"[Element La, Element Sr, Element Na, Element Cu, Element O]","{'La': 1.75, 'Sr': 0.15, 'Na': 0.1, 'Cu': 1.0, 'O': 4.0}",Cuprates,5
La1.7Sr0.15Na0.15Cu1O4,37.0,La1.7 Sr0.15 Na0.15 Cu1 O4,"[Element La, Element Sr, Element Na, Element Cu, Element O]","{'La': 1.7, 'Sr': 0.15, 'Na': 0.15, 'Cu': 1.0, 'O': 4.0}",Cuprates,5
La1.55Sr0.15Na0.3Cu1O4,37.0,La1.55 Sr0.15 Na0.3 Cu1 O4,"[Element La, Element Sr, Element Na, Element Cu, Element O]","{'La': 1.55, 'Sr': 0.15, 'Na': 0.3, 'Cu': 1.0, 'O': 4.0}",Cuprates,5
Na0.3Co1H2.6O3.3,4.8,Na0.3 Co1 H2.6 O3.3,"[Element Na, Element Co, Element H, Element O]","{'Na': 0.3, 'Co': 1.0, 'H': 2.6, 'O': 3.3}",Hydrides,4
Na0.3Co1H2.8O3.4,4.5,Na0.3 Co1 H2.8 O3.4,"[Element Na, Element Co, Element H, Element O]","{'Na': 0.3, 'Co': 1.0, 'H': 2.8, 'O': 3.4}",Hydrides,4
La1.85Sr0.15Cu0.99Ru0.01O4,20.5,La1.85 Sr0.15 Cu0.99 Ru0.01 O4,"[Element La, Element Sr, Element Cu, Element Ru, Element O]","{'La': 1.85, 'Sr': 0.15, 'Cu': 0.99, 'Ru': 0.01, 'O': 4.0}",Cuprates,5
La1.85Sr0.15Cu0.98Ru0.02O4,10.8,La1.85 Sr0.15 Cu0.98 Ru0.02 O4,"[Element La, Element Sr, Element Cu, Element Ru, Element O]","{'La': 1.85, 'Sr': 0.15, 'Cu': 0.98, 'Ru': 0.02, 'O': 4.0}",Cuprates,5
La1.85Sr0.15Cu0.97Ru0.03O4,10.8,La1.85 Sr0.15 Cu0.97 Ru0.03 O4,"[Element La, Element Sr, Element Cu, Element Ru, Element O]","{'La': 1.85, 'Sr': 0.15, 'Cu': 0.97, 'Ru': 0.03, 'O': 4.0}",Cuprates,5
La1.83Sr0.17Cu0.99Ru0.01O4,31.1,La1.83 Sr0.17 Cu0.99 Ru0.01 O4,"[Element La, Element Sr, Element Cu, Element Ru, Element O]","{'La': 1.83, 'Sr': 0.17, 'Cu': 0.99, 'Ru': 0.01, 'O': 4.0}",Cuprates,5
La1.825Sr0.175Cu0.99Ru0.01O4,29.6,La1.825 Sr0.175 Cu0.99 Ru0.01 O4,"[Element La, Element Sr, Element Cu, Element Ru, Element O]","{'La': 1.825, 'Sr': 0.175, 'Cu': 0.99, 'Ru': 0.01, 'O': 4.0}",Cuprates,5
La1.82Sr0.18Cu0.99Ru0.01O4,28.3,La1.82 Sr0.18 Cu0.99 Ru0.01 O4,"[Element La, Element Sr, Element Cu, Element Ru, Element O]","{'La': 1.82, 'Sr': 0.18, 'Cu': 0.99, 'Ru': 0.01, 'O': 4.0}",Cuprates,5
La1.81Sr0.19Cu0.99Ru0.01O4,26.5,La1.81 Sr0.19 Cu0.99 Ru0.01 O4,"[Element La, Element Sr, Element Cu, Element Ru, Element O]","{'La': 1.81, 'Sr': 0.19, 'Cu': 0.99, 'Ru': 0.01, 'O': 4.0}",Cuprates,5
La1.79Sr0.21Cu0.99Ru0.01O4,22.1,La1.79 Sr0.21 Cu0.99 Ru0.01 O4,"[Element La, Element Sr, Element Cu, Element Ru, Element O]","{'La': 1.79, 'Sr': 0.21, 'Cu': 0.99, 'Ru': 0.01, 'O': 4.0}",Cuprates,5
La1.81Sr0.19Cu0.98Ru0.02O4,13.5,La1.81 Sr0.19 Cu0.98 Ru0.02 O4,"[Element La, Element Sr, Element Cu, Element Ru, Element O]","{'La': 1.81, 'Sr': 0.19, 'Cu': 0.98, 'Ru': 0.02, 'O': 4.0}",Cuprates,5
La1.805Sr0.195Cu0.98Ru0.02O4,14.1,La1.805 Sr0.195 Cu0.98 Ru0.02 O4,"[Element La, Element Sr, Element Cu, Element Ru, Element O]","{'La': 1.805, 'Sr': 0.195, 'Cu': 0.98, 'Ru': 0.02, 'O': 4.0}",Cuprates,5
La1.8Sr0.2Cu0.98Ru0.02O4,15.6,La1.8 Sr0.2 Cu0.98 Ru0.02 O4,"[Element La, Element Sr, Element Cu, Element Ru, Element O]","{'La': 1.8, 'Sr': 0.2, 'Cu': 0.98, 'Ru': 0.02, 'O': 4.0}",Cuprates,5
La1.795Sr0.205Cu0.98Ru0.02O4,15.5,La1.795 Sr0.205 Cu0.98 Ru0.02 O4,"[Element La, Element Sr, Element Cu, Element Ru, Element O]","{'La': 1.795, 'Sr': 0.205, 'Cu': 0.98, 'Ru': 0.02, 'O': 4.0}",Cuprates,5
La1.79Sr0.21Cu0.98Ru0.02O4,11.2,La1.79 Sr0.21 Cu0.98 Ru0.02 O4,"[Element La, Element Sr, Element Cu, Element Ru, Element O]","{'La': 1.79, 'Sr': 0.21, 'Cu': 0.98, 'Ru': 0.02, 'O': 4.0}",Cuprates,5
La1.79Sr0.21Cu0.97Ru0.03O4,14.8,La1.79 Sr0.21 Cu0.97 Ru0.03 O4,"[Element La, Element Sr, Element Cu, Element Ru, Element O]","{'La': 1.79, 'Sr': 0.21, 'Cu': 0.97, 'Ru': 0.03, 'O': 4.0}",Cuprates,5
La1.78Sr0.22Cu0.97Ru0.03O4,15.6,La1.78 Sr0.22 Cu0.97 Ru0.03 O4,"[Element La, Element Sr, Element Cu, Element Ru, Element O]","{'La': 1.78, 'Sr': 0.22, 'Cu': 0.97, 'Ru': 0.03, 'O': 4.0}",Cuprates,5