chemical_formula,Tc,composition,elements,stoichiometry,Category,num_elements
Mo6Se7.9Te0.1,6.3,Mo6 Se7.9 Te0.1,"[Element Mo, Element Se, Element Te]","{'Mo': 6.0, 'Se': 7.9, 'Te': 0.1}",Other,3
Mo6Se7.7Te0.3,6.66,Mo6 Se7.7 Te0.3,"[Element Mo, Element Se, Element Te]","{'Mo': 6.0, 'Se': 7.7, 'Te': 0.3}",Other,3
Mo6Se7.5Te0.5,6.69,Mo6 Se7.5 Te0.5,"[Element Mo, Element Se, Element Te]","{'Mo': 6.0, 'Se': 7.5, 'Te': 0.5}",Other,3
Mo6Se6.5Te1.5,6.23,Mo6 Se6.5 Te1.5,"[Element Mo, Element Se, Element Te]","{'Mo': 6.0, 'Se': 6.5, 'Te': 1.5}",Other,3
Mo6Se7.5Cl0.5,6.33,Mo6 Se7.5 Cl0.5,"[Element Mo, Element Se, Element Cl]","{'Mo': 6.0, 'Se': 7.5, 'Cl': 0.5}",Other,3
Mo6Se7Cl1,6.52,Mo6 Se7 Cl1,"[Element Mo, Element Se, Element Cl]","{'Mo': 6.0, 'Se': 7.0, 'Cl': 1.0}",Other,3
Mo6Se6.5Cl1.5,6.49,Mo6 Se6.5 Cl1.5,"[Element Mo, Element Se, Element Cl]","{'Mo': 6.0, 'Se': 6.5, 'Cl': 1.5}",Other,3
Mo6Se6Cl2,6.39,Mo6 Se6 Cl2,"[Element Mo, Element Se, Element Cl]","{'Mo': 6.0, 'Se': 6.0, 'Cl': 2.0}",Other,3
Mo5.8Ru0.2Se8,6.21,Mo5.8 Ru0.2 Se8,"[Element Mo, Element Ru, Element Se]","{'Mo': 5.8, 'Ru': 0.2, 'Se': 8.0}",Other,3
Mo5.6Ru0.4Se8,5.69,Mo5.6 Ru0.4 Se8,"[Element Mo, Element Ru, Element Se]","{'Mo': 5.6, 'Ru': 0.4, 'Se': 8.0}",Other,3
Mo5.5Ru0.5Se8,5.43,Mo5.5 Ru0.5 Se8,"[Element Mo, Element Ru, Element Se]","{'Mo': 5.5, 'Ru': 0.5, 'Se': 8.0}",Other,3
Mo5Ru1Se8,3.7,Mo5 Ru1 Se8,"[Element Mo, Element Ru, Element Se]","{'Mo': 5.0, 'Ru': 1.0, 'Se': 8.0}",Other,3
Lu4.5Er0.5Ir4Si10,2.74,Lu4.5 Er0.5 Ir4 Si10,"[Element Lu, Element Er, Element Ir, Element Si]","{'Lu': 4.5, 'Er': 0.5, 'Ir': 4.0, 'Si': 10.0}",Other,4
Lu4.5Ho0.5Ir4Si10,1.89,Lu4.5 Ho0.5 Ir4 Si10,"[Element Lu, Element Ho, Element Ir, Element Si]","{'Lu': 4.5, 'Ho': 0.5, 'Ir': 4.0, 'Si': 10.0}",Other,4
Lu5Ir3.44Rh0.56Si10,5.72,Lu5 Ir3.44 Rh0.56 Si10,"[Element Lu, Element Ir, Element Rh, Element Si]","{'Lu': 5.0, 'Ir': 3.44, 'Rh': 0.56, 'Si': 10.0}",Other,4
Lu5Ir3.12Rh0.88Si10,5.68,Lu5 Ir3.12 Rh0.88 Si10,"[Element Lu, Element Ir, Element Rh, Element Si]","{'Lu': 5.0, 'Ir': 3.12, 'Rh': 0.88, 'Si': 10.0}",Other,4
Lu5Ir3.8Co0.2Si10,5.52,Lu5 Ir3.8 Co0.2 Si10,"[Element Lu, Element Ir, Element Co, Element Si]","{'Lu': 5.0, 'Ir': 3.8, 'Co': 0.2, 'Si': 10.0}",Other,4
Lu4.975Sc0.025Ir4Si10,4.0,Lu4.975 Sc0.025 Ir4 Si10,"[Element Lu, Element Sc, Element Ir, Element Si]","{'Lu': 4.975, 'Sc': 0.025, 'Ir': 4.0, 'Si': 10.0}",Other,4
Lu4.95Sc0.05Ir4Si10,4.5,Lu4.95 Sc0.05 Ir4 Si10,"[Element Lu, Element Sc, Element Ir, Element Si]","{'Lu': 4.95, 'Sc': 0.05, 'Ir': 4.0, 'Si': 10.0}",Other,4
Lu4.9Sc0.1Ir4Si10,5.77,Lu4.9 Sc0.1 Ir4 Si10,"[Element Lu, Element Sc, Element Ir, Element Si]","{'Lu': 4.9, 'Sc': 0.1, 'Ir': 4.0, 'Si': 10.0}",Other,4
Ce1Cu1.95Si2.01,0.62,Ce1 Cu1.95 Si2.01,"[Element Ce, Element Cu, Element Si]","{'Ce': 1.0, 'Cu': 1.95, 'Si': 2.01}",Other,3
Ce1Cu2Si1.98Ge0.02,0.54,Ce1 Cu2 Si1.98 Ge0.02,"[Element Ce, Element Cu, Element Si, Element Ge]","{'Ce': 1.0, 'Cu': 2.0, 'Si': 1.98, 'Ge': 0.02}",Other,4
Ce1Cu2Si1.96Ge0.04,0.37,Ce1 Cu2 Si1.96 Ge0.04,"[Element Ce, Element Cu, Element Si, Element Ge]","{'Ce': 1.0, 'Cu': 2.0, 'Si': 1.96, 'Ge': 0.04}",Other,4
Ce1Cu2Si1.92Ge0.08,0.27,Ce1 Cu2 Si1.92 Ge0.08,"[Element Ce, Element Cu, Element Si, Element Ge]","{'Ce': 1.0, 'Cu': 2.0, 'Si': 1.92, 'Ge': 0.08}",Other,4
Ce1Cu2Si1.88Ge0.12,0.2,Ce1 Cu2 Si1.88 Ge0.12,"[Element Ce, Element Cu, Element Si, Element Ge]","{'Ce': 1.0, 'Cu': 2.0, 'Si': 1.88, 'Ge': 0.12}",Other,4
Mg1Cu1Ni3,7.2,Mg1 Cu1 Ni3,"[Element Mg, Element Cu, Element Ni]","{'Mg': 1.0, 'Cu': 1.0, 'Ni': 3.0}",Other,3
V2Hf0.9Ti0.1,9.19,V2 Hf0.9 Ti0.1,"[Element V, Element Hf, Element Ti]","{'V': 2.0, 'Hf': 0.9, 'Ti': 0.1}",Other,3
V2Hf0.8Ti0.2,8.8,V2 Hf0.8 Ti0.2,"[Element V, Element Hf, Element Ti]","{'V': 2.0, 'Hf': 0.8, 'Ti': 0.2}",Other,3
V2Hf0.9Nb0.1,9.93,V2 Hf0.9 Nb0.1,"[Element V, Element Hf, Element Nb]","{'V': 2.0, 'Hf': 0.9, 'Nb': 0.1}",Other,3
V2Hf0.84Nb0.16,10.67,V2 Hf0.84 Nb0.16,"[Element V, Element Hf, Element Nb]","{'V': 2.0, 'Hf': 0.84, 'Nb': 0.16}",Other,3
V2Hf0.9Ta0.1,9.82,V2 Hf0.9 Ta0.1,"[Element V, Element Hf, Element Ta]","{'V': 2.0, 'Hf': 0.9, 'Ta': 0.1}",Other,3
V2Hf0.87Ta0.13,10.45,V2 Hf0.87 Ta0.13,"[Element V, Element Hf, Element Ta]","{'V': 2.0, 'Hf': 0.87, 'Ta': 0.13}",Other,3
Ce1Co0.5Ir0.5In5,0.64,Ce1 Co0.5 Ir0.5 In5,"[Element Ce, Element Co, Element Ir, Element In]","{'Ce': 1.0, 'Co': 0.5, 'Ir': 0.5, 'In': 5.0}",Other,4
B3Be1.09,0.72,B3 Be1.09,"[Element B, Element Be]","{'B': 3.0, 'Be': 1.09}",Other,2
Hf1Ir1Si1,3.5,Hf1 Ir1 Si1,"[Element Hf, Element Ir, Element Si]","{'Hf': 1.0, 'Ir': 1.0, 'Si': 1.0}",Other,3
Mo0.82Re0.18,8.5,Mo0.82 Re0.18,"[Element Mo, Element Re]","{'Mo': 0.82, 'Re': 0.18}",Other,2
Mo0.75Re0.25,10.0,Mo0.75 Re0.25,"[Element Mo, Element Re]","{'Mo': 0.75, 'Re': 0.25}",Other,2
Mo0.65Re0.35,10.2,Mo0.65 Re0.35,"[Element Mo, Element Re]","{'Mo': 0.65, 'Re': 0.35}",Other,2
Mo0.62Re0.38,11.5,Mo0.62 Re0.38,"[Element Mo, Element Re]","{'Mo': 0.62, 'Re': 0.38}",Other,2
Ca1Ga1Si1,4.3,Ca1 Ga1 Si1,"[Element Ca, Element Ga, Element Si]","{'Ca': 1.0, 'Ga': 1.0, 'Si': 1.0}",Other,3
Ca1Ga0.74Si1.26,3.5,Ca1 Ga0.74 Si1.26,"[Element Ca, Element Ga, Element Si]","{'Ca': 1.0, 'Ga': 0.74, 'Si': 1.26}",Other,3
Ba1Ga0.78Si1.22,4.0,Ba1 Ga0.78 Si1.22,"[Element Ba, Element Ga, Element Si]","{'Ba': 1.0, 'Ga': 0.78, 'Si': 1.22}",Other,3
La1Ni1Ga2,1.97,La1 Ni1 Ga2,"[Element La, Element Ni, Element Ga]","{'La': 1.0, 'Ni': 1.0, 'Ga': 2.0}",Other,3
Ho1Rh3.72Ru0.28B4,6.42,Ho1 Rh3.72 Ru0.28 B4,"[Element Ho, Element Rh, Element Ru, Element B]","{'Ho': 1.0, 'Rh': 3.72, 'Ru': 0.28, 'B': 4.0}",Other,4
Ho1Rh3.6Ru0.4B4,6.42,Ho1 Rh3.6 Ru0.4 B4,"[Element Ho, Element Rh, Element Ru, Element B]","{'Ho': 1.0, 'Rh': 3.6, 'Ru': 0.4, 'B': 4.0}",Other,4
Ho1Rh3.4Ru0.6B4,6.14,Ho1 Rh3.4 Ru0.6 B4,"[Element Ho, Element Rh, Element Ru, Element B]","{'Ho': 1.0, 'Rh': 3.4, 'Ru': 0.6, 'B': 4.0}",Other,4
Ho1Rh3Ru1B4,6.35,Ho1 Rh3 Ru1 B4,"[Element Ho, Element Rh, Element Ru, Element B]","{'Ho': 1.0, 'Rh': 3.0, 'Ru': 1.0, 'B': 4.0}",Other,4
Ho1Rh2.6Ru1.4B4,4.68,Ho1 Rh2.6 Ru1.4 B4,"[Element Ho, Element Rh, Element Ru, Element B]","{'Ho': 1.0, 'Rh': 2.6, 'Ru': 1.4, 'B': 4.0}",Other,4
Ho1Rh2.4Ru1.6B4,1.6,Ho1 Rh2.4 Ru1.6 B4,"[Element Ho, Element Rh, Element Ru, Element B]","{'Ho': 1.0, 'Rh': 2.4, 'Ru': 1.6, 'B': 4.0}",Other,4
C6Ir4O2,2.0,C6 Ir4 O2,"[Element C, Element Ir, Element O]","{'C': 6.0, 'Ir': 4.0, 'O': 2.0}",Other,3
N0.8H2.4Na1Rb2C60,15.2,N0.8 H2.4 Na1 Rb2 C60,"[Element N, Element H, Element Na, Element Rb, Element C]","{'N': 0.8, 'H': 2.4, 'Na': 1.0, 'Rb': 2.0, 'C': 60.0}",Hydrides,5
N0.9H2.7Na1Rb2C60,12.1,N0.9 H2.7 Na1 Rb2 C60,"[Element N, Element H, Element Na, Element Rb, Element C]","{'N': 0.9, 'H': 2.7, 'Na': 1.0, 'Rb': 2.0, 'C': 60.0}",Hydrides,5
Sr1Ga0.5Si1.5,3.5,Sr1 Ga0.5 Si1.5,"[Element Sr, Element Ga, Element Si]","{'Sr': 1.0, 'Ga': 0.5, 'Si': 1.5}",Other,3
Sr1Ga0.55Si1.45,3.4,Sr1 Ga0.55 Si1.45,"[Element Sr, Element Ga, Element Si]","{'Sr': 1.0, 'Ga': 0.55, 'Si': 1.45}",Other,3
Sr1Ga0.6Si1.4,2.98,Sr1 Ga0.6 Si1.4,"[Element Sr, Element Ga, Element Si]","{'Sr': 1.0, 'Ga': 0.6, 'Si': 1.4}",Other,3
Sr1Ga0.65Si1.35,2.58,Sr1 Ga0.65 Si1.35,"[Element Sr, Element Ga, Element Si]","{'Sr': 1.0, 'Ga': 0.65, 'Si': 1.35}",Other,3
Sr1Ga0.7Si1.3,3.17,Sr1 Ga0.7 Si1.3,"[Element Sr, Element Ga, Element Si]","{'Sr': 1.0, 'Ga': 0.7, 'Si': 1.3}",Other,3
Sr1Ga0.75Si1.25,3.67,Sr1 Ga0.75 Si1.25,"[Element Sr, Element Ga, Element Si]","{'Sr': 1.0, 'Ga': 0.75, 'Si': 1.25}",Other,3
Sr1Ga0.8Si1.2,4.24,Sr1 Ga0.8 Si1.2,"[Element Sr, Element Ga, Element Si]","{'Sr': 1.0, 'Ga': 0.8, 'Si': 1.2}",Other,3
Sr1Ga0.9Si1.1,4.73,Sr1 Ga0.9 Si1.1,"[Element Sr, Element Ga, Element Si]","{'Sr': 1.0, 'Ga': 0.9, 'Si': 1.1}",Other,3
Sr1Ga1Si1,5.1,Sr1 Ga1 Si1,"[Element Sr, Element Ga, Element Si]","{'Sr': 1.0, 'Ga': 1.0, 'Si': 1.0}",Other,3
Sr1Ga1.1Si0.9,5.04,Sr1 Ga1.1 Si0.9,"[Element Sr, Element Ga, Element Si]","{'Sr': 1.0, 'Ga': 1.1, 'Si': 0.9}",Other,3
Sr1Ga1.2Si0.8,4.75,Sr1 Ga1.2 Si0.8,"[Element Sr, Element Ga, Element Si]","{'Sr': 1.0, 'Ga': 1.2, 'Si': 0.8}",Other,3
Sr1Ga1.3Si0.7,3.52,Sr1 Ga1.3 Si0.7,"[Element Sr, Element Ga, Element Si]","{'Sr': 1.0, 'Ga': 1.3, 'Si': 0.7}",Other,3
Sr1Al1Si1,4.2,Sr1 Al1 Si1,"[Element Sr, Element Al, Element Si]","{'Sr': 1.0, 'Al': 1.0, 'Si': 1.0}",Other,3
Ba1Ga1Si1,3.9,Ba1 Ga1 Si1,"[Element Ba, Element Ga, Element Si]","{'Ba': 1.0, 'Ga': 1.0, 'Si': 1.0}",Other,3
Ca1Al1.4Si0.6,4.6,Ca1 Al1.4 Si0.6,"[Element Ca, Element Al, Element Si]","{'Ca': 1.0, 'Al': 1.4, 'Si': 0.6}",Other,3
Ca1Al1.3Si0.7,4.5,Ca1 Al1.3 Si0.7,"[Element Ca, Element Al, Element Si]","{'Ca': 1.0, 'Al': 1.3, 'Si': 0.7}",Other,3
Ca1Al1.25Si0.75,4.4,Ca1 Al1.25 Si0.75,"[Element Ca, Element Al, Element Si]","{'Ca': 1.0, 'Al': 1.25, 'Si': 0.75}",Other,3
Ca1Al1.2Si0.8,5.21,Ca1 Al1.2 Si0.8,"[Element Ca, Element Al, Element Si]","{'Ca': 1.0, 'Al': 1.2, 'Si': 0.8}",Other,3
Ca1Al1.1Si0.9,6.63,Ca1 Al1.1 Si0.9,"[Element Ca, Element Al, Element Si]","{'Ca': 1.0, 'Al': 1.1, 'Si': 0.9}",Other,3
Ca1Al0.9Si1.1,5.57,Ca1 Al0.9 Si1.1,"[Element Ca, Element Al, Element Si]","{'Ca': 1.0, 'Al': 0.9, 'Si': 1.1}",Other,3
Ca1Al0.8Si1.2,4.05,Ca1 Al0.8 Si1.2,"[Element Ca, Element Al, Element Si]","{'Ca': 1.0, 'Al': 0.8, 'Si': 1.2}",Other,3
B2Nb0.84,9.1,B2 Nb0.84,"[Element B, Element Nb]","{'B': 2.0, 'Nb': 0.84}",Other,2
Er0.7Tb0.3Ni2B2C1,2.0,Er0.7 Tb0.3 Ni2 B2 C1,"[Element Er, Element Tb, Element Ni, Element B, Element C]","{'Er': 0.7, 'Tb': 0.3, 'Ni': 2.0, 'B': 2.0, 'C': 1.0}",Other,5
Er0.4Tb0.6Ni2B2C1,2.0,Er0.4 Tb0.6 Ni2 B2 C1,"[Element Er, Element Tb, Element Ni, Element B, Element C]","{'Er': 0.4, 'Tb': 0.6, 'Ni': 2.0, 'B': 2.0, 'C': 1.0}",Other,5
Er0.9Tb0.1Ni2B2C1,9.2,Er0.9 Tb0.1 Ni2 B2 C1,"[Element Er, Element Tb, Element Ni, Element B, Element C]","{'Er': 0.9, 'Tb': 0.1, 'Ni': 2.0, 'B': 2.0, 'C': 1.0}",Other,5
Er0.85Tb0.15Ni2B2C1,8.3,Er0.85 Tb0.15 Ni2 B2 C1,"[Element Er, Element Tb, Element Ni, Element B, Element C]","{'Er': 0.85, 'Tb': 0.15, 'Ni': 2.0, 'B': 2.0, 'C': 1.0}",Other,5
Er0.82Tb0.18Ni2B2C1,5.63,Er0.82 Tb0.18 Ni2 B2 C1,"[Element Er, Element Tb, Element Ni, Element B, Element C]","{'Er': 0.82, 'Tb': 0.18, 'Ni': 2.0, 'B': 2.0, 'C': 1.0}",Other,5
Ce2Co1In8,0.4,Ce2 Co1 In8,"[Element Ce, Element Co, Element In]","{'Ce': 2.0, 'Co': 1.0, 'In': 8.0}",Other,3
La6Ni2Sn1,2.25,La6 Ni2 Sn1,"[Element La, Element Ni, Element Sn]","{'La': 6.0, 'Ni': 2.0, 'Sn': 1.0}",Other,3
Mg1B1.6C0.4,22.0,Mg1 B1.6 C0.4,"[Element Mg, Element B, Element C]","{'Mg': 1.0, 'B': 1.6, 'C': 0.4}",Other,3
Nb1C0.2N0.64,16.3,Nb1 C0.2 N0.64,"[Element Nb, Element C, Element N]","{'Nb': 1.0, 'C': 0.2, 'N': 0.64}",Other,3
Nb1C0.2N0.7,17.2,Nb1 C0.2 N0.7,"[Element Nb, Element C, Element N]","{'Nb': 1.0, 'C': 0.2, 'N': 0.7}",Other,3
Nb1C0.2N0.74,17.5,Nb1 C0.2 N0.74,"[Element Nb, Element C, Element N]","{'Nb': 1.0, 'C': 0.2, 'N': 0.74}",Other,3
Nb1C0.3N0.57,16.4,Nb1 C0.3 N0.57,"[Element Nb, Element C, Element N]","{'Nb': 1.0, 'C': 0.3, 'N': 0.57}",Other,3
Nb1C0.3N0.62,17.3,Nb1 C0.3 N0.62,"[Element Nb, Element C, Element N]","{'Nb': 1.0, 'C': 0.3, 'N': 0.62}",Other,3
Nb1C0.3N0.64,17.8,Nb1 C0.3 N0.64,"[Element Nb, Element C, Element N]","{'Nb': 1.0, 'C': 0.3, 'N': 0.64}",Other,3
Nb1C0.5N0.36,15.6,Nb1 C0.5 N0.36,"[Element Nb, Element C, Element N]","{'Nb': 1.0, 'C': 0.5, 'N': 0.36}",Other,3
Nb1C0.5N0.42,17.0,Nb1 C0.5 N0.42,"[Element Nb, Element C, Element N]","{'Nb': 1.0, 'C': 0.5, 'N': 0.42}",Other,3
Nb1C0.5N0.47,17.4,Nb1 C0.5 N0.47,"[Element Nb, Element C, Element N]","{'Nb': 1.0, 'C': 0.5, 'N': 0.47}",Other,3
Nb1C0.5N0.5,17.9,Nb1 C0.5 N0.5,"[Element Nb, Element C, Element N]","{'Nb': 1.0, 'C': 0.5, 'N': 0.5}",Other,3
Mg1B1.96F0.04,30.0,Mg1 B1.96 F0.04,"[Element Mg, Element B, Element F]","{'Mg': 1.0, 'B': 1.96, 'F': 0.04}",Other,3
Mg1B1.92F0.08,21.0,Mg1 B1.92 F0.08,"[Element Mg, Element B, Element F]","{'Mg': 1.0, 'B': 1.92, 'F': 0.08}",Other,3
Mg1B1.84F0.16,16.0,Mg1 B1.84 F0.16,"[Element Mg, Element B, Element F]","{'Mg': 1.0, 'B': 1.84, 'F': 0.16}",Other,3
Nb1C0.2N0.8,17.6,Nb1 C0.2 N0.8,"[Element Nb, Element C, Element N]","{'Nb': 1.0, 'C': 0.2, 'N': 0.8}",Other,3
Mg0.996Cu0.004B2,38.11,Mg0.996 Cu0.004 B2,"[Element Mg, Element Cu, Element B]","{'Mg': 0.996, 'Cu': 0.004, 'B': 2.0}",Other,3
Mg0.989Cu0.011B2,38.05,Mg0.989 Cu0.011 B2,"[Element Mg, Element Cu, Element B]","{'Mg': 0.989, 'Cu': 0.011, 'B': 2.0}",Other,3
Mg0.982Cu0.018B2,37.8,Mg0.982 Cu0.018 B2,"[Element Mg, Element Cu, Element B]","{'Mg': 0.982, 'Cu': 0.018, 'B': 2.0}",Other,3
Mg0.97Cu0.03B2,37.58,Mg0.97 Cu0.03 B2,"[Element Mg, Element Cu, Element B]","{'Mg': 0.97, 'Cu': 0.03, 'B': 2.0}",Other,3
N0.72H2.16Na1K3C60,12.0,N0.72 H2.16 Na1 K3 C60,"[Element N, Element H, Element Na, Element K, Element C]","{'N': 0.72, 'H': 2.16, 'Na': 1.0, 'K': 3.0, 'C': 60.0}",Hydrides,5
K3N1H3C60,28.0,K3 N1 H3 C60,"[Element K, Element N, Element H, Element C]","{'K': 3.0, 'N': 1.0, 'H': 3.0, 'C': 60.0}",Hydrides,4
Ge5La1,7.0,Ge5 La1,"[Element Ge, Element La]","{'Ge': 5.0, 'La': 1.0}",Other,2
H0.3Li1Nb1O2,5.5,H0.3 Li1 Nb1 O2,"[Element H, Element Li, Element Nb, Element O]","{'H': 0.3, 'Li': 1.0, 'Nb': 1.0, 'O': 2.0}",Hydrides,4
H0.5Li1Nb1O2,5.5,H0.5 Li1 Nb1 O2,"[Element H, Element Li, Element Nb, Element O]","{'H': 0.5, 'Li': 1.0, 'Nb': 1.0, 'O': 2.0}",Hydrides,4
B0.67Mg0.33,6.1,B0.67 Mg0.33,"[Element B, Element Mg]","{'B': 0.67, 'Mg': 0.33}",Other,2
Ce1Te1.82,2.7,Ce1 Te1.82,"[Element Ce, Element Te]","{'Ce': 1.0, 'Te': 1.82}",Other,2
B2Mg0.9,38.2,B2 Mg0.9,"[Element B, Element Mg]","{'B': 2.0, 'Mg': 0.9}",Other,2
B2Mg0.8,38.0,B2 Mg0.8,"[Element B, Element Mg]","{'B': 2.0, 'Mg': 0.8}",Other,2
B2Mg0.7,37.2,B2 Mg0.7,"[Element B, Element Mg]","{'B': 2.0, 'Mg': 0.7}",Other,2
B2Mg0.6,36.9,B2 Mg0.6,"[Element B, Element Mg]","{'B': 2.0, 'Mg': 0.6}",Other,2
B2Mg0.5,36.0,B2 Mg0.5,"[Element B, Element Mg]","{'B': 2.0, 'Mg': 0.5}",Other,2
Mg0.9Cu0.1B2,38.6,Mg0.9 Cu0.1 B2,"[Element Mg, Element Cu, Element B]","{'Mg': 0.9, 'Cu': 0.1, 'B': 2.0}",Other,3
Mg0.8Cu0.2B2,38.6,Mg0.8 Cu0.2 B2,"[Element Mg, Element Cu, Element B]","{'Mg': 0.8, 'Cu': 0.2, 'B': 2.0}",Other,3
Mg1B1.7C0.3,36.4,Mg1 B1.7 C0.3,"[Element Mg, Element B, Element C]","{'Mg': 1.0, 'B': 1.7, 'C': 0.3}",Other,3
Mg1B1.92C0.08,38.3,Mg1 B1.92 C0.08,"[Element Mg, Element B, Element C]","{'Mg': 1.0, 'B': 1.92, 'C': 0.08}",Other,3
Mg1B1.75C0.25,30.0,Mg1 B1.75 C0.25,"[Element Mg, Element B, Element C]","{'Mg': 1.0, 'B': 1.75, 'C': 0.25}",Other,3
Mg1B1.5C0.5,26.2,Mg1 B1.5 C0.5,"[Element Mg, Element B, Element C]","{'Mg': 1.0, 'B': 1.5, 'C': 0.5}",Other,3
Li0.5Hf1N1Cl1,26.0,Li0.5 Hf1 N1 Cl1,"[Element Li, Element Hf, Element N, Element Cl]","{'Li': 0.5, 'Hf': 1.0, 'N': 1.0, 'Cl': 1.0}",Other,4
Au0.915In0.085,0.031,Au0.915 In0.085,"[Element Au, Element In]","{'Au': 0.915, 'In': 0.085}",Other,2
Au0.9In0.1,0.077,Au0.9 In0.1,"[Element Au, Element In]","{'Au': 0.9, 'In': 0.1}",Other,2
Au0.94In0.06,0.0111,Au0.94 In0.06,"[Element Au, Element In]","{'Au': 0.94, 'In': 0.06}",Other,2
Au0.93In0.07,0.0164,Au0.93 In0.07,"[Element Au, Element In]","{'Au': 0.93, 'In': 0.07}",Other,2
Au0.92In0.08,0.0256,Au0.92 In0.08,"[Element Au, Element In]","{'Au': 0.92, 'In': 0.08}",Other,2
Au0.91In0.09,0.0423,Au0.91 In0.09,"[Element Au, Element In]","{'Au': 0.91, 'In': 0.09}",Other,2
Mg0.98Ir0.02B2,33.2,Mg0.98 Ir0.02 B2,"[Element Mg, Element Ir, Element B]","{'Mg': 0.98, 'Ir': 0.02, 'B': 2.0}",Other,3
Mg0.94Ir0.06B2,28.1,Mg0.94 Ir0.06 B2,"[Element Mg, Element Ir, Element B]","{'Mg': 0.94, 'Ir': 0.06, 'B': 2.0}",Other,3
Mg0.88Ir0.12B2,18.0,Mg0.88 Ir0.12 B2,"[Element Mg, Element Ir, Element B]","{'Mg': 0.88, 'Ir': 0.12, 'B': 2.0}",Other,3
Pb0.98Cu0.036Mo6S8,14.8,Pb0.98 Cu0.036 Mo6 S8,"[Element Pb, Element Cu, Element Mo, Element S]","{'Pb': 0.98, 'Cu': 0.036, 'Mo': 6.0, 'S': 8.0}",Other,4
Pb0.9Cu0.18Mo6S8,13.65,Pb0.9 Cu0.18 Mo6 S8,"[Element Pb, Element Cu, Element Mo, Element S]","{'Pb': 0.9, 'Cu': 0.18, 'Mo': 6.0, 'S': 8.0}",Other,4
Mg1C0.977Ni3,7.0,Mg1 C0.977 Ni3,"[Element Mg, Element C, Element Ni]","{'Mg': 1.0, 'C': 0.977, 'Ni': 3.0}",Other,3
B3Re7,3.3,B3 Re7,"[Element B, Element Re]","{'B': 3.0, 'Re': 7.0}",Other,2
Mg1C1Ni2.95Co0.05,7.42,Mg1 C1 Ni2.95 Co0.05,"[Element Mg, Element C, Element Ni, Element Co]","{'Mg': 1.0, 'C': 1.0, 'Ni': 2.95, 'Co': 0.05}",Other,4
Mg1C1Ni2.9Co0.1,7.29,Mg1 C1 Ni2.9 Co0.1,"[Element Mg, Element C, Element Ni, Element Co]","{'Mg': 1.0, 'C': 1.0, 'Ni': 2.9, 'Co': 0.1}",Other,4
Mg1C1Ni2.8Co0.2,7.2,Mg1 C1 Ni2.8 Co0.2,"[Element Mg, Element C, Element Ni, Element Co]","{'Mg': 1.0, 'C': 1.0, 'Ni': 2.8, 'Co': 0.2}",Other,4
Mg1C1Ni2.6Co0.4,7.1,Mg1 C1 Ni2.6 Co0.4,"[Element Mg, Element C, Element Ni, Element Co]","{'Mg': 1.0, 'C': 1.0, 'Ni': 2.6, 'Co': 0.4}",Other,4
Mg1C1Ni2.9Fe0.1,8.58,Mg1 C1 Ni2.9 Fe0.1,"[Element Mg, Element C, Element Ni, Element Fe]","{'Mg': 1.0, 'C': 1.0, 'Ni': 2.9, 'Fe': 0.1}",Fe-based,4
Mg1C1Ni2.8Fe0.2,8.0,Mg1 C1 Ni2.8 Fe0.2,"[Element Mg, Element C, Element Ni, Element Fe]","{'Mg': 1.0, 'C': 1.0, 'Ni': 2.8, 'Fe': 0.2}",Fe-based,4
Mg1C1Ni2.7Fe0.3,6.88,Mg1 C1 Ni2.7 Fe0.3,"[Element Mg, Element C, Element Ni, Element Fe]","{'Mg': 1.0, 'C': 1.0, 'Ni': 2.7, 'Fe': 0.3}",Fe-based,4
Cr0.2V0.8,1.66,Cr0.2 V0.8,"[Element Cr, Element V]","{'Cr': 0.2, 'V': 0.8}",Other,2
Mg0.854Au0.146B2,25.6,Mg0.854 Au0.146 B2,"[Element Mg, Element Au, Element B]","{'Mg': 0.854, 'Au': 0.146, 'B': 2.0}",Other,3
Mg0.764Au0.236B2,24.5,Mg0.764 Au0.236 B2,"[Element Mg, Element Au, Element B]","{'Mg': 0.764, 'Au': 0.236, 'B': 2.0}",Other,3
La1Rh1Sb1,2.1,La1 Rh1 Sb1,"[Element La, Element Rh, Element Sb]","{'La': 1.0, 'Rh': 1.0, 'Sb': 1.0}",Other,3
La0.9989Ce0.0011Rh3B2,1.67,La0.9989 Ce0.0011 Rh3 B2,"[Element La, Element Ce, Element Rh, Element B]","{'La': 0.9989, 'Ce': 0.0011, 'Rh': 3.0, 'B': 2.0}",Other,4
La0.9978Ce0.0022Rh3B2,1.07,La0.9978 Ce0.0022 Rh3 B2,"[Element La, Element Ce, Element Rh, Element B]","{'La': 0.9978, 'Ce': 0.0022, 'Rh': 3.0, 'B': 2.0}",Other,4
La0.9973Ce0.0027Rh3B2,0.38,La0.9973 Ce0.0027 Rh3 B2,"[Element La, Element Ce, Element Rh, Element B]","{'La': 0.9973, 'Ce': 0.0027, 'Rh': 3.0, 'B': 2.0}",Other,4
Ce1Os3B2,3.5,Ce1 Os3 B2,"[Element Ce, Element Os, Element B]","{'Ce': 1.0, 'Os': 3.0, 'B': 2.0}",Other,3
Ce1Ru3B2,1.1,Ce1 Ru3 B2,"[Element Ce, Element Ru, Element B]","{'Ce': 1.0, 'Ru': 3.0, 'B': 2.0}",Other,3
Er1Ni1.96Fe0.04B2C0.99,7.3,Er1 Ni1.96 Fe0.04 B2 C0.99,"[Element Er, Element Ni, Element Fe, Element B, Element C]","{'Er': 1.0, 'Ni': 1.96, 'Fe': 0.04, 'B': 2.0, 'C': 0.99}",Fe-based,5
Er0.8Lu0.2Ni2B2C1,10.8,Er0.8 Lu0.2 Ni2 B2 C1,"[Element Er, Element Lu, Element Ni, Element B, Element C]","{'Er': 0.8, 'Lu': 0.2, 'Ni': 2.0, 'B': 2.0, 'C': 1.0}",Other,5
Er1Ni1.9Co0.1B2C1,3.1,Er1 Ni1.9 Co0.1 B2 C1,"[Element Er, Element Ni, Element Co, Element B, Element C]","{'Er': 1.0, 'Ni': 1.9, 'Co': 0.1, 'B': 2.0, 'C': 1.0}",Other,5
Pr1Os3.4Ru0.6Sb12,1.53,Pr1 Os3.4 Ru0.6 Sb12,"[Element Pr, Element Os, Element Ru, Element Sb]","{'Pr': 1.0, 'Os': 3.4, 'Ru': 0.6, 'Sb': 12.0}",Other,4
Pr1Os2.8Ru1.2Sb12,1.05,Pr1 Os2.8 Ru1.2 Sb12,"[Element Pr, Element Os, Element Ru, Element Sb]","{'Pr': 1.0, 'Os': 2.8, 'Ru': 1.2, 'Sb': 12.0}",Other,4
Pr1Os2Ru2Sb12,0.8,Pr1 Os2 Ru2 Sb12,"[Element Pr, Element Os, Element Ru, Element Sb]","{'Pr': 1.0, 'Os': 2.0, 'Ru': 2.0, 'Sb': 12.0}",Other,4
Pr1Os1.2Ru2.8Sb12,0.81,Pr1 Os1.2 Ru2.8 Sb12,"[Element Pr, Element Os, Element Ru, Element Sb]","{'Pr': 1.0, 'Os': 1.2, 'Ru': 2.8, 'Sb': 12.0}",Other,4
Pr1Os1Ru3Sb12,0.84,Pr1 Os1 Ru3 Sb12,"[Element Pr, Element Os, Element Ru, Element Sb]","{'Pr': 1.0, 'Os': 1.0, 'Ru': 3.0, 'Sb': 12.0}",Other,4
Pr1Os0.4Ru3.6Sb12,1.04,Pr1 Os0.4 Ru3.6 Sb12,"[Element Pr, Element Os, Element Ru, Element Sb]","{'Pr': 1.0, 'Os': 0.4, 'Ru': 3.6, 'Sb': 12.0}",Other,4
Pr1Os0.2Ru3.8Sb12,1.16,Pr1 Os0.2 Ru3.8 Sb12,"[Element Pr, Element Os, Element Ru, Element Sb]","{'Pr': 1.0, 'Os': 0.2, 'Ru': 3.8, 'Sb': 12.0}",Other,4
La0.92Tm0.08Ru3Si2,6.8,La0.92 Tm0.08 Ru3 Si2,"[Element La, Element Tm, Element Ru, Element Si]","{'La': 0.92, 'Tm': 0.08, 'Ru': 3.0, 'Si': 2.0}",Other,4