chemical_formula,Tc,composition,elements,stoichiometry,Category,num_elements
Sm1.8Ce0.2Cu1O4,14.7,Sm1.8 Ce0.2 Cu1 O4,"[Element Sm, Element Ce, Element Cu, Element O]","{'Sm': 1.8, 'Ce': 0.2, 'Cu': 1.0, 'O': 4.0}",Cuprates,4
La1.85Sr0.15Cu0.996Fe0.004O4,29.4,La1.85 Sr0.15 Cu0.996 Fe0.004 O4,"[Element La, Element Sr, Element Cu, Element Fe, Element O]","{'La': 1.85, 'Sr': 0.15, 'Cu': 0.996, 'Fe': 0.004, 'O': 4.0}",Cuprates,5
La1.85Sr0.15Cu0.992Fe0.008O4,20.4,La1.85 Sr0.15 Cu0.992 Fe0.008 O4,"[Element La, Element Sr, Element Cu, Element Fe, Element O]","{'La': 1.85, 'Sr': 0.15, 'Cu': 0.992, 'Fe': 0.008, 'O': 4.0}",Cuprates,5
La1.85Sr0.15Cu0.988Fe0.012O4,11.6,La1.85 Sr0.15 Cu0.988 Fe0.012 O4,"[Element La, Element Sr, Element Cu, Element Fe, Element O]","{'La': 1.85, 'Sr': 0.15, 'Cu': 0.988, 'Fe': 0.012, 'O': 4.0}",Cuprates,5
La1.85Sr0.15Cu0.985Fe0.015O4,5.2,La1.85 Sr0.15 Cu0.985 Fe0.015 O4,"[Element La, Element Sr, Element Cu, Element Fe, Element O]","{'La': 1.85, 'Sr': 0.15, 'Cu': 0.985, 'Fe': 0.015, 'O': 4.0}",Cuprates,5
La1.85Sr0.15Cu0.982Fe0.018O4,0.2,La1.85 Sr0.15 Cu0.982 Fe0.018 O4,"[Element La, Element Sr, Element Cu, Element Fe, Element O]","{'La': 1.85, 'Sr': 0.15, 'Cu': 0.982, 'Fe': 0.018, 'O': 4.0}",Cuprates,5
La1.85Sr0.15Cu0.996Co0.004O4,30.0,La1.85 Sr0.15 Cu0.996 Co0.004 O4,"[Element La, Element Sr, Element Cu, Element Co, Element O]","{'La': 1.85, 'Sr': 0.15, 'Cu': 0.996, 'Co': 0.004, 'O': 4.0}",Cuprates,5
La1.85Sr0.15Cu0.992Co0.008O4,23.1,La1.85 Sr0.15 Cu0.992 Co0.008 O4,"[Element La, Element Sr, Element Cu, Element Co, Element O]","{'La': 1.85, 'Sr': 0.15, 'Cu': 0.992, 'Co': 0.008, 'O': 4.0}",Cuprates,5
La1.85Sr0.15Cu0.988Co0.012O4,18.6,La1.85 Sr0.15 Cu0.988 Co0.012 O4,"[Element La, Element Sr, Element Cu, Element Co, Element O]","{'La': 1.85, 'Sr': 0.15, 'Cu': 0.988, 'Co': 0.012, 'O': 4.0}",Cuprates,5
La1.85Sr0.15Cu0.985Co0.015O4,16.0,La1.85 Sr0.15 Cu0.985 Co0.015 O4,"[Element La, Element Sr, Element Cu, Element Co, Element O]","{'La': 1.85, 'Sr': 0.15, 'Cu': 0.985, 'Co': 0.015, 'O': 4.0}",Cuprates,5
La1.85Sr0.15Cu0.982Co0.018O4,8.9,La1.85 Sr0.15 Cu0.982 Co0.018 O4,"[Element La, Element Sr, Element Cu, Element Co, Element O]","{'La': 1.85, 'Sr': 0.15, 'Cu': 0.982, 'Co': 0.018, 'O': 4.0}",Cuprates,5
La1.85Sr0.15Cu0.979Co0.021O4,6.0,La1.85 Sr0.15 Cu0.979 Co0.021 O4,"[Element La, Element Sr, Element Cu, Element Co, Element O]","{'La': 1.85, 'Sr': 0.15, 'Cu': 0.979, 'Co': 0.021, 'O': 4.0}",Cuprates,5
La1.85Sr0.15Cu0.976Co0.024O4,4.4,La1.85 Sr0.15 Cu0.976 Co0.024 O4,"[Element La, Element Sr, Element Cu, Element Co, Element O]","{'La': 1.85, 'Sr': 0.15, 'Cu': 0.976, 'Co': 0.024, 'O': 4.0}",Cuprates,5
La1.85Sr0.15Cu0.973Co0.027O4,2.5,La1.85 Sr0.15 Cu0.973 Co0.027 O4,"[Element La, Element Sr, Element Cu, Element Co, Element O]","{'La': 1.85, 'Sr': 0.15, 'Cu': 0.973, 'Co': 0.027, 'O': 4.0}",Cuprates,5
La1.85Sr0.15Cu0.995Ga0.005O4,29.8,La1.85 Sr0.15 Cu0.995 Ga0.005 O4,"[Element La, Element Sr, Element Cu, Element Ga, Element O]","{'La': 1.85, 'Sr': 0.15, 'Cu': 0.995, 'Ga': 0.005, 'O': 4.0}",Cuprates,5
La1.85Sr0.15Cu0.99Ga0.01O4,24.1,La1.85 Sr0.15 Cu0.99 Ga0.01 O4,"[Element La, Element Sr, Element Cu, Element Ga, Element O]","{'La': 1.85, 'Sr': 0.15, 'Cu': 0.99, 'Ga': 0.01, 'O': 4.0}",Cuprates,5
La1.85Sr0.15Cu0.985Ga0.015O4,13.7,La1.85 Sr0.15 Cu0.985 Ga0.015 O4,"[Element La, Element Sr, Element Cu, Element Ga, Element O]","{'La': 1.85, 'Sr': 0.15, 'Cu': 0.985, 'Ga': 0.015, 'O': 4.0}",Cuprates,5
La1.85Sr0.15Cu0.98Ga0.02O4,8.3,La1.85 Sr0.15 Cu0.98 Ga0.02 O4,"[Element La, Element Sr, Element Cu, Element Ga, Element O]","{'La': 1.85, 'Sr': 0.15, 'Cu': 0.98, 'Ga': 0.02, 'O': 4.0}",Cuprates,5
La1.85Sr0.15Cu0.977Ga0.023O4,0.9,La1.85 Sr0.15 Cu0.977 Ga0.023 O4,"[Element La, Element Sr, Element Cu, Element Ga, Element O]","{'La': 1.85, 'Sr': 0.15, 'Cu': 0.977, 'Ga': 0.023, 'O': 4.0}",Cuprates,5
La1.85Sr0.15Cu0.975Ga0.025O4,0.7,La1.85 Sr0.15 Cu0.975 Ga0.025 O4,"[Element La, Element Sr, Element Cu, Element Ga, Element O]","{'La': 1.85, 'Sr': 0.15, 'Cu': 0.975, 'Ga': 0.025, 'O': 4.0}",Cuprates,5
La1.85Sr0.15Cu0.993Ni0.007O4,32.6,La1.85 Sr0.15 Cu0.993 Ni0.007 O4,"[Element La, Element Sr, Element Cu, Element Ni, Element O]","{'La': 1.85, 'Sr': 0.15, 'Cu': 0.993, 'Ni': 0.007, 'O': 4.0}",Cuprates,5
La1.85Sr0.15Cu0.986Ni0.014O4,27.9,La1.85 Sr0.15 Cu0.986 Ni0.014 O4,"[Element La, Element Sr, Element Cu, Element Ni, Element O]","{'La': 1.85, 'Sr': 0.15, 'Cu': 0.986, 'Ni': 0.014, 'O': 4.0}",Cuprates,5
La1.85Sr0.15Cu0.98Ni0.02O4,22.2,La1.85 Sr0.15 Cu0.98 Ni0.02 O4,"[Element La, Element Sr, Element Cu, Element Ni, Element O]","{'La': 1.85, 'Sr': 0.15, 'Cu': 0.98, 'Ni': 0.02, 'O': 4.0}",Cuprates,5
La1.85Sr0.15Cu0.97Ni0.03O4,13.4,La1.85 Sr0.15 Cu0.97 Ni0.03 O4,"[Element La, Element Sr, Element Cu, Element Ni, Element O]","{'La': 1.85, 'Sr': 0.15, 'Cu': 0.97, 'Ni': 0.03, 'O': 4.0}",Cuprates,5
La1.85Sr0.15Cu0.966Ni0.034O4,9.4,La1.85 Sr0.15 Cu0.966 Ni0.034 O4,"[Element La, Element Sr, Element Cu, Element Ni, Element O]","{'La': 1.85, 'Sr': 0.15, 'Cu': 0.966, 'Ni': 0.034, 'O': 4.0}",Cuprates,5
La1.85Sr0.15CuNi0.037O4,6.1,La1.85 Sr0.15 Cu1 Ni0.037 O4,"[Element La, Element Sr, Element Cu, Element Ni, Element O]","{'La': 1.85, 'Sr': 0.15, 'Cu': 1.0, 'Ni': 0.037, 'O': 4.0}",Cuprates,5
La1.85Sr0.15CuNi0.04O4,2.5,La1.85 Sr0.15 Cu1 Ni0.04 O4,"[Element La, Element Sr, Element Cu, Element Ni, Element O]","{'La': 1.85, 'Sr': 0.15, 'Cu': 1.0, 'Ni': 0.04, 'O': 4.0}",Cuprates,5
La1.85Sr0.15Cu0.996Al0.004O4,30.4,La1.85 Sr0.15 Cu0.996 Al0.004 O4,"[Element La, Element Sr, Element Cu, Element Al, Element O]","{'La': 1.85, 'Sr': 0.15, 'Cu': 0.996, 'Al': 0.004, 'O': 4.0}",Cuprates,5
La1.85Sr0.15Cu0.992Al0.008O4,27.1,La1.85 Sr0.15 Cu0.992 Al0.008 O4,"[Element La, Element Sr, Element Cu, Element Al, Element O]","{'La': 1.85, 'Sr': 0.15, 'Cu': 0.992, 'Al': 0.008, 'O': 4.0}",Cuprates,5
La1.85Sr0.15Cu0.988Al0.012O4,17.9,La1.85 Sr0.15 Cu0.988 Al0.012 O4,"[Element La, Element Sr, Element Cu, Element Al, Element O]","{'La': 1.85, 'Sr': 0.15, 'Cu': 0.988, 'Al': 0.012, 'O': 4.0}",Cuprates,5
La1.85Sr0.15Cu0.985Al0.015O4,15.0,La1.85 Sr0.15 Cu0.985 Al0.015 O4,"[Element La, Element Sr, Element Cu, Element Al, Element O]","{'La': 1.85, 'Sr': 0.15, 'Cu': 0.985, 'Al': 0.015, 'O': 4.0}",Cuprates,5
La1.85Sr0.15Cu0.982Al0.018O4,9.1,La1.85 Sr0.15 Cu0.982 Al0.018 O4,"[Element La, Element Sr, Element Cu, Element Al, Element O]","{'La': 1.85, 'Sr': 0.15, 'Cu': 0.982, 'Al': 0.018, 'O': 4.0}",Cuprates,5
La1.85Sr0.15Cu0.979Al0.021O4,3.7,La1.85 Sr0.15 Cu0.979 Al0.021 O4,"[Element La, Element Sr, Element Cu, Element Al, Element O]","{'La': 1.85, 'Sr': 0.15, 'Cu': 0.979, 'Al': 0.021, 'O': 4.0}",Cuprates,5
Bi2Sr1.6Ca1.2Lu0.2Cu2O8.26,88.6,Bi2 Sr1.6 Ca1.2 Lu0.2 Cu2 O8.26,"[Element Bi, Element Sr, Element Ca, Element Lu, Element Cu, Element O]","{'Bi': 2.0, 'Sr': 1.6, 'Ca': 1.2, 'Lu': 0.2, 'Cu': 2.0, 'O': 8.26}",Cuprates,6
Bi2Sr1.6Ca1.2Eu0.2Cu2O8.26,87.1,Bi2 Sr1.6 Ca1.2 Eu0.2 Cu2 O8.26,"[Element Bi, Element Sr, Element Ca, Element Eu, Element Cu, Element O]","{'Bi': 2.0, 'Sr': 1.6, 'Ca': 1.2, 'Eu': 0.2, 'Cu': 2.0, 'O': 8.26}",Cuprates,6
Bi2Sr1.6Ca1.2La0.2Cu2O8.27,86.0,Bi2 Sr1.6 Ca1.2 La0.2 Cu2 O8.27,"[Element Bi, Element Sr, Element Ca, Element La, Element Cu, Element O]","{'Bi': 2.0, 'Sr': 1.6, 'Ca': 1.2, 'La': 0.2, 'Cu': 2.0, 'O': 8.27}",Cuprates,6
Bi2Sr1.8Ca1Lu0.2Cu2O8.27,91.1,Bi2 Sr1.8 Ca1 Lu0.2 Cu2 O8.27,"[Element Bi, Element Sr, Element Ca, Element Lu, Element Cu, Element O]","{'Bi': 2.0, 'Sr': 1.8, 'Ca': 1.0, 'Lu': 0.2, 'Cu': 2.0, 'O': 8.27}",Cuprates,6
Bi2Sr1.8Ca1Eu0.2Cu2O8.25,88.9,Bi2 Sr1.8 Ca1 Eu0.2 Cu2 O8.25,"[Element Bi, Element Sr, Element Ca, Element Eu, Element Cu, Element O]","{'Bi': 2.0, 'Sr': 1.8, 'Ca': 1.0, 'Eu': 0.2, 'Cu': 2.0, 'O': 8.25}",Cuprates,6
Bi2Sr1.8Ca1La0.2Cu2O8.27,87.8,Bi2 Sr1.8 Ca1 La0.2 Cu2 O8.27,"[Element Bi, Element Sr, Element Ca, Element La, Element Cu, Element O]","{'Bi': 2.0, 'Sr': 1.8, 'Ca': 1.0, 'La': 0.2, 'Cu': 2.0, 'O': 8.27}",Cuprates,6
Bi2Sr2Ca0.8Lu0.2Cu2O8.27,92.5,Bi2 Sr2 Ca0.8 Lu0.2 Cu2 O8.27,"[Element Bi, Element Sr, Element Ca, Element Lu, Element Cu, Element O]","{'Bi': 2.0, 'Sr': 2.0, 'Ca': 0.8, 'Lu': 0.2, 'Cu': 2.0, 'O': 8.27}",Cuprates,6
Tl1La1Sr1Cu1O5,34.0,Tl1 La1 Sr1 Cu1 O5,"[Element Tl, Element La, Element Sr, Element Cu, Element O]","{'Tl': 1.0, 'La': 1.0, 'Sr': 1.0, 'Cu': 1.0, 'O': 5.0}",Cuprates,5
Tl0.8La1Sr1Cu1.2O5,37.0,Tl0.8 La1 Sr1 Cu1.2 O5,"[Element Tl, Element La, Element Sr, Element Cu, Element O]","{'Tl': 0.8, 'La': 1.0, 'Sr': 1.0, 'Cu': 1.2, 'O': 5.0}",Cuprates,5
Tl0.6La1Sr1Cu1.4O5,33.0,Tl0.6 La1 Sr1 Cu1.4 O5,"[Element Tl, Element La, Element Sr, Element Cu, Element O]","{'Tl': 0.6, 'La': 1.0, 'Sr': 1.0, 'Cu': 1.4, 'O': 5.0}",Cuprates,5
Tl0.4La1Sr1Cu1.6O5,30.0,Tl0.4 La1 Sr1 Cu1.6 O5,"[Element Tl, Element La, Element Sr, Element Cu, Element O]","{'Tl': 0.4, 'La': 1.0, 'Sr': 1.0, 'Cu': 1.6, 'O': 5.0}",Cuprates,5
Tl0.7La1Sr1Cu1O5,38.5,Tl0.7 La1 Sr1 Cu1 O5,"[Element Tl, Element La, Element Sr, Element Cu, Element O]","{'Tl': 0.7, 'La': 1.0, 'Sr': 1.0, 'Cu': 1.0, 'O': 5.0}",Cuprates,5
Tl1Ba2Cu1O5,95.0,Tl1 Ba2 Cu1 O5,"[Element Tl, Element Ba, Element Cu, Element O]","{'Tl': 1.0, 'Ba': 2.0, 'Cu': 1.0, 'O': 5.0}",Cuprates,4
Tl1Ba1Sr1Cu1O5,41.5,Tl1 Ba1 Sr1 Cu1 O5,"[Element Tl, Element Ba, Element Sr, Element Cu, Element O]","{'Tl': 1.0, 'Ba': 1.0, 'Sr': 1.0, 'Cu': 1.0, 'O': 5.0}",Cuprates,5
Er1Ba2Cu2.82Ni0.18O7,65.0,Er1 Ba2 Cu2.82 Ni0.18 O7,"[Element Er, Element Ba, Element Cu, Element Ni, Element O]","{'Er': 1.0, 'Ba': 2.0, 'Cu': 2.82, 'Ni': 0.18, 'O': 7.0}",Cuprates,5
La1.85Ca0.989Sr0.161Cu2O5.93,13.0,La1.85 Ca0.989 Sr0.161 Cu2 O5.93,"[Element La, Element Ca, Element Sr, Element Cu, Element O]","{'La': 1.85, 'Ca': 0.989, 'Sr': 0.161, 'Cu': 2.0, 'O': 5.93}",Cuprates,5
La1.83Ca1.006Sr0.164Cu2O6.08,14.1,La1.83 Ca1.006 Sr0.164 Cu2 O6.08,"[Element La, Element Ca, Element Sr, Element Cu, Element O]","{'La': 1.83, 'Ca': 1.006, 'Sr': 0.164, 'Cu': 2.0, 'O': 6.08}",Cuprates,5
La1.8Ca1.032Sr0.168Cu2O6.08,15.0,La1.8 Ca1.032 Sr0.168 Cu2 O6.08,"[Element La, Element Ca, Element Sr, Element Cu, Element O]","{'La': 1.8, 'Ca': 1.032, 'Sr': 0.168, 'Cu': 2.0, 'O': 6.08}",Cuprates,5
Bi2Sr2Cu1O6,8.9,Bi2 Sr2 Cu1 O6,"[Element Bi, Element Sr, Element Cu, Element O]","{'Bi': 2.0, 'Sr': 2.0, 'Cu': 1.0, 'O': 6.0}",Cuprates,4
Bi2Sr1.6La0.4Cu1O6.26,14.3,Bi2 Sr1.6 La0.4 Cu1 O6.26,"[Element Bi, Element Sr, Element La, Element Cu, Element O]","{'Bi': 2.0, 'Sr': 1.6, 'La': 0.4, 'Cu': 1.0, 'O': 6.26}",Cuprates,5
Bi1.8Pb0.2Sr1.6La0.4Cu1O6.182,13.7,Bi1.8 Pb0.2 Sr1.6 La0.4 Cu1 O6.182,"[Element Bi, Element Pb, Element Sr, Element La, Element Cu, Element O]","{'Bi': 1.8, 'Pb': 0.2, 'Sr': 1.6, 'La': 0.4, 'Cu': 1.0, 'O': 6.182}",Cuprates,6
Bi1.7Pb0.3Sr1.6La0.4Cu1O6.141,20.2,Bi1.7 Pb0.3 Sr1.6 La0.4 Cu1 O6.141,"[Element Bi, Element Pb, Element Sr, Element La, Element Cu, Element O]","{'Bi': 1.7, 'Pb': 0.3, 'Sr': 1.6, 'La': 0.4, 'Cu': 1.0, 'O': 6.141}",Cuprates,6
Bi1.6Pb0.4Sr1.6La0.4Cu1O6.082,23.0,Bi1.6 Pb0.4 Sr1.6 La0.4 Cu1 O6.082,"[Element Bi, Element Pb, Element Sr, Element La, Element Cu, Element O]","{'Bi': 1.6, 'Pb': 0.4, 'Sr': 1.6, 'La': 0.4, 'Cu': 1.0, 'O': 6.082}",Cuprates,6
Bi1.5Pb0.5Sr1.6La0.4Cu1O6.055,28.4,Bi1.5 Pb0.5 Sr1.6 La0.4 Cu1 O6.055,"[Element Bi, Element Pb, Element Sr, Element La, Element Cu, Element O]","{'Bi': 1.5, 'Pb': 0.5, 'Sr': 1.6, 'La': 0.4, 'Cu': 1.0, 'O': 6.055}",Cuprates,6
Bi1.4Pb0.6Sr1.6La0.4Cu1O6.068,28.0,Bi1.4 Pb0.6 Sr1.6 La0.4 Cu1 O6.068,"[Element Bi, Element Pb, Element Sr, Element La, Element Cu, Element O]","{'Bi': 1.4, 'Pb': 0.6, 'Sr': 1.6, 'La': 0.4, 'Cu': 1.0, 'O': 6.068}",Cuprates,6
Bi1.2Pb0.8Sr1.6La0.4Cu1O6.014,17.3,Bi1.2 Pb0.8 Sr1.6 La0.4 Cu1 O6.014,"[Element Bi, Element Pb, Element Sr, Element La, Element Cu, Element O]","{'Bi': 1.2, 'Pb': 0.8, 'Sr': 1.6, 'La': 0.4, 'Cu': 1.0, 'O': 6.014}",Cuprates,6
Bi1Pb1Sr1.6La0.4Cu1O6.065,19.8,Bi1 Pb1 Sr1.6 La0.4 Cu1 O6.065,"[Element Bi, Element Pb, Element Sr, Element La, Element Cu, Element O]","{'Bi': 1.0, 'Pb': 1.0, 'Sr': 1.6, 'La': 0.4, 'Cu': 1.0, 'O': 6.065}",Cuprates,6
Bi1.5Pb0.5Sr1.8La0.2Cu1O5.983,9.2,Bi1.5 Pb0.5 Sr1.8 La0.2 Cu1 O5.983,"[Element Bi, Element Pb, Element Sr, Element La, Element Cu, Element O]","{'Bi': 1.5, 'Pb': 0.5, 'Sr': 1.8, 'La': 0.2, 'Cu': 1.0, 'O': 5.983}",Cuprates,6
Bi1.5Pb0.5Sr1.7La0.3Cu1O5.993,15.6,Bi1.5 Pb0.5 Sr1.7 La0.3 Cu1 O5.993,"[Element Bi, Element Pb, Element Sr, Element La, Element Cu, Element O]","{'Bi': 1.5, 'Pb': 0.5, 'Sr': 1.7, 'La': 0.3, 'Cu': 1.0, 'O': 5.993}",Cuprates,6
Bi1.5Pb0.5Sr1.6La0.4Cu1O6.044,28.1,Bi1.5 Pb0.5 Sr1.6 La0.4 Cu1 O6.044,"[Element Bi, Element Pb, Element Sr, Element La, Element Cu, Element O]","{'Bi': 1.5, 'Pb': 0.5, 'Sr': 1.6, 'La': 0.4, 'Cu': 1.0, 'O': 6.044}",Cuprates,6
Bi1.5Pb0.5Sr1.5La0.5Cu1O6.074,18.1,Bi1.5 Pb0.5 Sr1.5 La0.5 Cu1 O6.074,"[Element Bi, Element Pb, Element Sr, Element La, Element Cu, Element O]","{'Bi': 1.5, 'Pb': 0.5, 'Sr': 1.5, 'La': 0.5, 'Cu': 1.0, 'O': 6.074}",Cuprates,6
Bi1.5Pb0.5Sr1.4La0.6Cu1O6.118,10.8,Bi1.5 Pb0.5 Sr1.4 La0.6 Cu1 O6.118,"[Element Bi, Element Pb, Element Sr, Element La, Element Cu, Element O]","{'Bi': 1.5, 'Pb': 0.5, 'Sr': 1.4, 'La': 0.6, 'Cu': 1.0, 'O': 6.118}",Cuprates,6
Sr0.85Pr0.15Cu1O2,39.0,Sr0.85 Pr0.15 Cu1 O2,"[Element Sr, Element Pr, Element Cu, Element O]","{'Sr': 0.85, 'Pr': 0.15, 'Cu': 1.0, 'O': 2.0}",Cuprates,4
Li1Ti1O4,12.15,Li1 Ti1 O4,"[Element Li, Element Ti, Element O]","{'Li': 1.0, 'Ti': 1.0, 'O': 4.0}",Other,3
La1.9Ba0.1Cu0.99Ga0.01O4,14.3,La1.9 Ba0.1 Cu0.99 Ga0.01 O4,"[Element La, Element Ba, Element Cu, Element Ga, Element O]","{'La': 1.9, 'Ba': 0.1, 'Cu': 0.99, 'Ga': 0.01, 'O': 4.0}",Cuprates,5
La1.88Ba0.12Cu0.99Ga0.01O4,8.2,La1.88 Ba0.12 Cu0.99 Ga0.01 O4,"[Element La, Element Ba, Element Cu, Element Ga, Element O]","{'La': 1.88, 'Ba': 0.12, 'Cu': 0.99, 'Ga': 0.01, 'O': 4.0}",Cuprates,5
La1.87Ba0.13Cu0.99Ga0.01O4,4.5,La1.87 Ba0.13 Cu0.99 Ga0.01 O4,"[Element La, Element Ba, Element Cu, Element Ga, Element O]","{'La': 1.87, 'Ba': 0.13, 'Cu': 0.99, 'Ga': 0.01, 'O': 4.0}",Cuprates,5
La1.84Ba0.16Cu0.99Ga0.01O4,8.3,La1.84 Ba0.16 Cu0.99 Ga0.01 O4,"[Element La, Element Ba, Element Cu, Element Ga, Element O]","{'La': 1.84, 'Ba': 0.16, 'Cu': 0.99, 'Ga': 0.01, 'O': 4.0}",Cuprates,5
La1.82Ba0.18Cu0.99Ga0.01O4,8.6,La1.82 Ba0.18 Cu0.99 Ga0.01 O4,"[Element La, Element Ba, Element Cu, Element Ga, Element O]","{'La': 1.82, 'Ba': 0.18, 'Cu': 0.99, 'Ga': 0.01, 'O': 4.0}",Cuprates,5
La1.94Ba0.06Cu1O4,10.2,La1.94 Ba0.06 Cu1 O4,"[Element La, Element Ba, Element Cu, Element O]","{'La': 1.94, 'Ba': 0.06, 'Cu': 1.0, 'O': 4.0}",Cuprates,4
La1.93Ba0.07Cu1O4,19.0,La1.93 Ba0.07 Cu1 O4,"[Element La, Element Ba, Element Cu, Element O]","{'La': 1.93, 'Ba': 0.07, 'Cu': 1.0, 'O': 4.0}",Cuprates,4
La1.903Ba0.097Cu1O4,26.0,La1.903 Ba0.097 Cu1 O4,"[Element La, Element Ba, Element Cu, Element O]","{'La': 1.903, 'Ba': 0.097, 'Cu': 1.0, 'O': 4.0}",Cuprates,4
La1.892Ba0.108Cu1O4,22.1,La1.892 Ba0.108 Cu1 O4,"[Element La, Element Ba, Element Cu, Element O]","{'La': 1.892, 'Ba': 0.108, 'Cu': 1.0, 'O': 4.0}",Cuprates,4
La1.86Ba0.14Cu1O4,13.3,La1.86 Ba0.14 Cu1 O4,"[Element La, Element Ba, Element Cu, Element O]","{'La': 1.86, 'Ba': 0.14, 'Cu': 1.0, 'O': 4.0}",Cuprates,4
La1.843Ba0.157Cu1O4,25.3,La1.843 Ba0.157 Cu1 O4,"[Element La, Element Ba, Element Cu, Element O]","{'La': 1.843, 'Ba': 0.157, 'Cu': 1.0, 'O': 4.0}",Cuprates,4
La1.823Ba0.177Cu1O4,25.5,La1.823 Ba0.177 Cu1 O4,"[Element La, Element Ba, Element Cu, Element O]","{'La': 1.823, 'Ba': 0.177, 'Cu': 1.0, 'O': 4.0}",Cuprates,4
La1.801Ba0.199Cu1O4,23.5,La1.801 Ba0.199 Cu1 O4,"[Element La, Element Ba, Element Cu, Element O]","{'La': 1.801, 'Ba': 0.199, 'Cu': 1.0, 'O': 4.0}",Cuprates,4
La1.782Ba0.218Cu1O4,21.6,La1.782 Ba0.218 Cu1 O4,"[Element La, Element Ba, Element Cu, Element O]","{'La': 1.782, 'Ba': 0.218, 'Cu': 1.0, 'O': 4.0}",Cuprates,4
La1.751Ba0.249Cu1O4,13.7,La1.751 Ba0.249 Cu1 O4,"[Element La, Element Ba, Element Cu, Element O]","{'La': 1.751, 'Ba': 0.249, 'Cu': 1.0, 'O': 4.0}",Cuprates,4
La1.7Ba0.3Cu1O4,9.7,La1.7 Ba0.3 Cu1 O4,"[Element La, Element Ba, Element Cu, Element O]","{'La': 1.7, 'Ba': 0.3, 'Cu': 1.0, 'O': 4.0}",Cuprates,4
La1.65Ba0.35Cu1O4,4.2,La1.65 Ba0.35 Cu1 O4,"[Element La, Element Ba, Element Cu, Element O]","{'La': 1.65, 'Ba': 0.35, 'Cu': 1.0, 'O': 4.0}",Cuprates,4
La1.6Ba0.4Cu1O4,4.2,La1.6 Ba0.4 Cu1 O4,"[Element La, Element Ba, Element Cu, Element O]","{'La': 1.6, 'Ba': 0.4, 'Cu': 1.0, 'O': 4.0}",Cuprates,4
La1.9Ba0.1Cu0.99Ni0.01O4,17.0,La1.9 Ba0.1 Cu0.99 Ni0.01 O4,"[Element La, Element Ba, Element Cu, Element Ni, Element O]","{'La': 1.9, 'Ba': 0.1, 'Cu': 0.99, 'Ni': 0.01, 'O': 4.0}",Cuprates,5
La1.882Ba0.118Cu0.99Ni0.01O4,12.7,La1.882 Ba0.118 Cu0.99 Ni0.01 O4,"[Element La, Element Ba, Element Cu, Element Ni, Element O]","{'La': 1.882, 'Ba': 0.118, 'Cu': 0.99, 'Ni': 0.01, 'O': 4.0}",Cuprates,5
La1.869Ba0.131Cu0.99Ni0.01O4,7.0,La1.869 Ba0.131 Cu0.99 Ni0.01 O4,"[Element La, Element Ba, Element Cu, Element Ni, Element O]","{'La': 1.869, 'Ba': 0.131, 'Cu': 0.99, 'Ni': 0.01, 'O': 4.0}",Cuprates,5
La1.86Ba0.14Cu0.99Ni0.01O4,11.0,La1.86 Ba0.14 Cu0.99 Ni0.01 O4,"[Element La, Element Ba, Element Cu, Element Ni, Element O]","{'La': 1.86, 'Ba': 0.14, 'Cu': 0.99, 'Ni': 0.01, 'O': 4.0}",Cuprates,5
La1.842Ba0.158Cu0.99Ni0.01O4,19.0,La1.842 Ba0.158 Cu0.99 Ni0.01 O4,"[Element La, Element Ba, Element Cu, Element Ni, Element O]","{'La': 1.842, 'Ba': 0.158, 'Cu': 0.99, 'Ni': 0.01, 'O': 4.0}",Cuprates,5
La1.822Ba0.178Cu0.99Ni0.01O4,18.2,La1.822 Ba0.178 Cu0.99 Ni0.01 O4,"[Element La, Element Ba, Element Cu, Element Ni, Element O]","{'La': 1.822, 'Ba': 0.178, 'Cu': 0.99, 'Ni': 0.01, 'O': 4.0}",Cuprates,5
Ba2Cu3O7,92.0,Ba2 Cu3 O7,"[Element Ba, Element Cu, Element O]","{'Ba': 2.0, 'Cu': 3.0, 'O': 7.0}",Cuprates,3
Ba1Pb0.75Bi0.25O3,10.5,Ba1 Pb0.75 Bi0.25 O3,"[Element Ba, Element Pb, Element Bi, Element O]","{'Ba': 1.0, 'Pb': 0.75, 'Bi': 0.25, 'O': 3.0}",Other,4
Tl1Ba2Ca1Cu2O8,107.995,Tl1 Ba2 Ca1 Cu2 O8,"[Element Tl, Element Ba, Element Ca, Element Cu, Element O]","{'Tl': 1.0, 'Ba': 2.0, 'Ca': 1.0, 'Cu': 2.0, 'O': 8.0}",Cuprates,5
Pr1Tl2Sr2Ca4Cu5O2,88.0,Pr1 Tl2 Sr2 Ca4 Cu5 O2,"[Element Pr, Element Tl, Element Sr, Element Ca, Element Cu, Element O]","{'Pr': 1.0, 'Tl': 2.0, 'Sr': 2.0, 'Ca': 4.0, 'Cu': 5.0, 'O': 2.0}",Cuprates,6
La1Ba1Ca1Cu3O6.856,66.0,La1 Ba1 Ca1 Cu3 O6.856,"[Element La, Element Ba, Element Ca, Element Cu, Element O]","{'La': 1.0, 'Ba': 1.0, 'Ca': 1.0, 'Cu': 3.0, 'O': 6.856}",Cuprates,5
La1Ba1Ca1Cu2.9Ni0.1O6.85,45.0,La1 Ba1 Ca1 Cu2.9 Ni0.1 O6.85,"[Element La, Element Ba, Element Ca, Element Cu, Element Ni, Element O]","{'La': 1.0, 'Ba': 1.0, 'Ca': 1.0, 'Cu': 2.9, 'Ni': 0.1, 'O': 6.85}",Cuprates,6
La1Ba1Ca1Cu2.8Ni0.2O6.837,30.0,La1 Ba1 Ca1 Cu2.8 Ni0.2 O6.837,"[Element La, Element Ba, Element Ca, Element Cu, Element Ni, Element O]","{'La': 1.0, 'Ba': 1.0, 'Ca': 1.0, 'Cu': 2.8, 'Ni': 0.2, 'O': 6.837}",Cuprates,6
La1Ba1Ca1Cu2.7Ni0.3O6.848,28.0,La1 Ba1 Ca1 Cu2.7 Ni0.3 O6.848,"[Element La, Element Ba, Element Ca, Element Cu, Element Ni, Element O]","{'La': 1.0, 'Ba': 1.0, 'Ca': 1.0, 'Cu': 2.7, 'Ni': 0.3, 'O': 6.848}",Cuprates,6
La1Ba1Ca1Cu2.6Ni0.4O6.854,24.0,La1 Ba1 Ca1 Cu2.6 Ni0.4 O6.854,"[Element La, Element Ba, Element Ca, Element Cu, Element Ni, Element O]","{'La': 1.0, 'Ba': 1.0, 'Ca': 1.0, 'Cu': 2.6, 'Ni': 0.4, 'O': 6.854}",Cuprates,6
Bi2Ca2.5Pr0.5Cu2O8.53,45.0,Bi2 Ca2.5 Pr0.5 Cu2 O8.53,"[Element Bi, Element Ca, Element Pr, Element Cu, Element O]","{'Bi': 2.0, 'Ca': 2.5, 'Pr': 0.5, 'Cu': 2.0, 'O': 8.53}",Cuprates,5
Bi2Ca2.5Sm0.5Cu2O8.33,22.0,Bi2 Ca2.5 Sm0.5 Cu2 O8.33,"[Element Bi, Element Ca, Element Sm, Element Cu, Element O]","{'Bi': 2.0, 'Ca': 2.5, 'Sm': 0.5, 'Cu': 2.0, 'O': 8.33}",Cuprates,5
Bi2Ca2.5Eu0.5Cu2O8.31,7.0,Bi2 Ca2.5 Eu0.5 Cu2 O8.31,"[Element Bi, Element Ca, Element Eu, Element Cu, Element O]","{'Bi': 2.0, 'Ca': 2.5, 'Eu': 0.5, 'Cu': 2.0, 'O': 8.31}",Cuprates,5