chemical_formula,Tc,composition,elements,stoichiometry,Category,num_elements
Ca0.2Ba1.55La1.25Cu3O7.03,34.7,Ca0.2 Ba1.55 La1.25 Cu3 O7.03,"[Element Ca, Element Ba, Element La, Element Cu, Element O]","{'Ca': 0.2, 'Ba': 1.55, 'La': 1.25, 'Cu': 3.0, 'O': 7.03}",Cuprates,5
Ca0.2Ba1.55La1.25Cu3O7.05,41.1,Ca0.2 Ba1.55 La1.25 Cu3 O7.05,"[Element Ca, Element Ba, Element La, Element Cu, Element O]","{'Ca': 0.2, 'Ba': 1.55, 'La': 1.25, 'Cu': 3.0, 'O': 7.05}",Cuprates,5
Ca0.2Ba1.55La1.25Cu3O7.07,46.1,Ca0.2 Ba1.55 La1.25 Cu3 O7.07,"[Element Ca, Element Ba, Element La, Element Cu, Element O]","{'Ca': 0.2, 'Ba': 1.55, 'La': 1.25, 'Cu': 3.0, 'O': 7.07}",Cuprates,5
Ca0.2Ba1.55La1.25Cu3O7.11,59.7,Ca0.2 Ba1.55 La1.25 Cu3 O7.11,"[Element Ca, Element Ba, Element La, Element Cu, Element O]","{'Ca': 0.2, 'Ba': 1.55, 'La': 1.25, 'Cu': 3.0, 'O': 7.11}",Cuprates,5
Ca0.4Ba1.25La1.35Cu3O7.04,21.3,Ca0.4 Ba1.25 La1.35 Cu3 O7.04,"[Element Ca, Element Ba, Element La, Element Cu, Element O]","{'Ca': 0.4, 'Ba': 1.25, 'La': 1.35, 'Cu': 3.0, 'O': 7.04}",Cuprates,5
Ca0.4Ba1.25La1.35Cu3O7.11,47.1,Ca0.4 Ba1.25 La1.35 Cu3 O7.11,"[Element Ca, Element Ba, Element La, Element Cu, Element O]","{'Ca': 0.4, 'Ba': 1.25, 'La': 1.35, 'Cu': 3.0, 'O': 7.11}",Cuprates,5
Ca0.4Ba1.25La1.35Cu3O7.16,63.5,Ca0.4 Ba1.25 La1.35 Cu3 O7.16,"[Element Ca, Element Ba, Element La, Element Cu, Element O]","{'Ca': 0.4, 'Ba': 1.25, 'La': 1.35, 'Cu': 3.0, 'O': 7.16}",Cuprates,5
Ca0.4Ba1.25La1.35Cu3O7.19,72.9,Ca0.4 Ba1.25 La1.35 Cu3 O7.19,"[Element Ca, Element Ba, Element La, Element Cu, Element O]","{'Ca': 0.4, 'Ba': 1.25, 'La': 1.35, 'Cu': 3.0, 'O': 7.19}",Cuprates,5
Ca0.1Ba1.65La1.25Cu3O7.01,19.5,Ca0.1 Ba1.65 La1.25 Cu3 O7.01,"[Element Ca, Element Ba, Element La, Element Cu, Element O]","{'Ca': 0.1, 'Ba': 1.65, 'La': 1.25, 'Cu': 3.0, 'O': 7.01}",Cuprates,5
Ca0.1Ba1.65La1.25Cu3O7.02,26.4,Ca0.1 Ba1.65 La1.25 Cu3 O7.02,"[Element Ca, Element Ba, Element La, Element Cu, Element O]","{'Ca': 0.1, 'Ba': 1.65, 'La': 1.25, 'Cu': 3.0, 'O': 7.02}",Cuprates,5
Ca0.1Ba1.65La1.25Cu3O7.03,29.9,Ca0.1 Ba1.65 La1.25 Cu3 O7.03,"[Element Ca, Element Ba, Element La, Element Cu, Element O]","{'Ca': 0.1, 'Ba': 1.65, 'La': 1.25, 'Cu': 3.0, 'O': 7.03}",Cuprates,5
Ca0.1Ba1.65La1.25Cu3O7.08,45.9,Ca0.1 Ba1.65 La1.25 Cu3 O7.08,"[Element Ca, Element Ba, Element La, Element Cu, Element O]","{'Ca': 0.1, 'Ba': 1.65, 'La': 1.25, 'Cu': 3.0, 'O': 7.08}",Cuprates,5
Ca0.4Ba1.35La1.25Cu3O6.9,5.0,Ca0.4 Ba1.35 La1.25 Cu3 O6.9,"[Element Ca, Element Ba, Element La, Element Cu, Element O]","{'Ca': 0.4, 'Ba': 1.35, 'La': 1.25, 'Cu': 3.0, 'O': 6.9}",Cuprates,5
Ca0.4Ba1.35La1.25Cu3O6.92,14.4,Ca0.4 Ba1.35 La1.25 Cu3 O6.92,"[Element Ca, Element Ba, Element La, Element Cu, Element O]","{'Ca': 0.4, 'Ba': 1.35, 'La': 1.25, 'Cu': 3.0, 'O': 6.92}",Cuprates,5
Ca0.4Ba1.35La1.25Cu3O6.95,24.8,Ca0.4 Ba1.35 La1.25 Cu3 O6.95,"[Element Ca, Element Ba, Element La, Element Cu, Element O]","{'Ca': 0.4, 'Ba': 1.35, 'La': 1.25, 'Cu': 3.0, 'O': 6.95}",Cuprates,5
Ca0.4Ba1.35La1.25Cu3O7.08,68.6,Ca0.4 Ba1.35 La1.25 Cu3 O7.08,"[Element Ca, Element Ba, Element La, Element Cu, Element O]","{'Ca': 0.4, 'Ba': 1.35, 'La': 1.25, 'Cu': 3.0, 'O': 7.08}",Cuprates,5
Ca0.4Ba1.35La1.25Cu3O7.15,78.8,Ca0.4 Ba1.35 La1.25 Cu3 O7.15,"[Element Ca, Element Ba, Element La, Element Cu, Element O]","{'Ca': 0.4, 'Ba': 1.35, 'La': 1.25, 'Cu': 3.0, 'O': 7.15}",Cuprates,5
Cu0.5S0.5Sr2Ca2Cu3O12,100.0,Cu3.5 S0.5 Sr2 Ca2 O12,"[Element Cu, Element S, Element Sr, Element Ca, Element O]","{'Cu': 3.5, 'S': 0.5, 'Sr': 2.0, 'Ca': 2.0, 'O': 12.0}",Cuprates,5
Hg0.5Pb0.5Ba2Ca4Cu5O12.5,110.0,Hg0.5 Pb0.5 Ba2 Ca4 Cu5 O12.5,"[Element Hg, Element Pb, Element Ba, Element Ca, Element Cu, Element O]","{'Hg': 0.5, 'Pb': 0.5, 'Ba': 2.0, 'Ca': 4.0, 'Cu': 5.0, 'O': 12.5}",Cuprates,6
Hg1Ba2Ca2Cu3O8.22,110.0,Hg1 Ba2 Ca2 Cu3 O8.22,"[Element Hg, Element Ba, Element Ca, Element Cu, Element O]","{'Hg': 1.0, 'Ba': 2.0, 'Ca': 2.0, 'Cu': 3.0, 'O': 8.22}",Cuprates,5
Hg0.9Pb0.1Ba2Ca2Cu3O8.25,118.0,Hg0.9 Pb0.1 Ba2 Ca2 Cu3 O8.25,"[Element Hg, Element Pb, Element Ba, Element Ca, Element Cu, Element O]","{'Hg': 0.9, 'Pb': 0.1, 'Ba': 2.0, 'Ca': 2.0, 'Cu': 3.0, 'O': 8.25}",Cuprates,6
Hg0.8Pb0.2Ba2Ca2Cu3O8.3,125.0,Hg0.8 Pb0.2 Ba2 Ca2 Cu3 O8.3,"[Element Hg, Element Pb, Element Ba, Element Ca, Element Cu, Element O]","{'Hg': 0.8, 'Pb': 0.2, 'Ba': 2.0, 'Ca': 2.0, 'Cu': 3.0, 'O': 8.3}",Cuprates,6
Hg0.7Pb0.3Ba2Ca2Cu3O8.35,130.0,Hg0.7 Pb0.3 Ba2 Ca2 Cu3 O8.35,"[Element Hg, Element Pb, Element Ba, Element Ca, Element Cu, Element O]","{'Hg': 0.7, 'Pb': 0.3, 'Ba': 2.0, 'Ca': 2.0, 'Cu': 3.0, 'O': 8.35}",Cuprates,6
Hg0.6Pb0.4Ba2Ca2Cu3O8.4,120.0,Hg0.6 Pb0.4 Ba2 Ca2 Cu3 O8.4,"[Element Hg, Element Pb, Element Ba, Element Ca, Element Cu, Element O]","{'Hg': 0.6, 'Pb': 0.4, 'Ba': 2.0, 'Ca': 2.0, 'Cu': 3.0, 'O': 8.4}",Cuprates,6
Hg0.5Pb0.5Ba2Ca2Cu3O8.45,103.0,Hg0.5 Pb0.5 Ba2 Ca2 Cu3 O8.45,"[Element Hg, Element Pb, Element Ba, Element Ca, Element Cu, Element O]","{'Hg': 0.5, 'Pb': 0.5, 'Ba': 2.0, 'Ca': 2.0, 'Cu': 3.0, 'O': 8.45}",Cuprates,6
Al1Sr2Ca2Cu3O9.3,63.0,Al1 Sr2 Ca2 Cu3 O9.3,"[Element Al, Element Sr, Element Ca, Element Cu, Element O]","{'Al': 1.0, 'Sr': 2.0, 'Ca': 2.0, 'Cu': 3.0, 'O': 9.3}",Cuprates,5
Al1Sr2Ca2Cu3O9.5,69.0,Al1 Sr2 Ca2 Cu3 O9.5,"[Element Al, Element Sr, Element Ca, Element Cu, Element O]","{'Al': 1.0, 'Sr': 2.0, 'Ca': 2.0, 'Cu': 3.0, 'O': 9.5}",Cuprates,5
Al1Sr2Ca2Cu3O9.7,72.0,Al1 Sr2 Ca2 Cu3 O9.7,"[Element Al, Element Sr, Element Ca, Element Cu, Element O]","{'Al': 1.0, 'Sr': 2.0, 'Ca': 2.0, 'Cu': 3.0, 'O': 9.7}",Cuprates,5
Al1Sr2Ca2Cu3O9.9,77.0,Al1 Sr2 Ca2 Cu3 O9.9,"[Element Al, Element Sr, Element Ca, Element Cu, Element O]","{'Al': 1.0, 'Sr': 2.0, 'Ca': 2.0, 'Cu': 3.0, 'O': 9.9}",Cuprates,5
Al1Sr2Ca2Cu3O10.1,76.0,Al1 Sr2 Ca2 Cu3 O10.1,"[Element Al, Element Sr, Element Ca, Element Cu, Element O]","{'Al': 1.0, 'Sr': 2.0, 'Ca': 2.0, 'Cu': 3.0, 'O': 10.1}",Cuprates,5
Ca1.9K0.1Cu1Cl2O2,18.0,Ca1.9 K0.1 Cu1 Cl2 O2,"[Element Ca, Element K, Element Cu, Element Cl, Element O]","{'Ca': 1.9, 'K': 0.1, 'Cu': 1.0, 'Cl': 2.0, 'O': 2.0}",Cuprates,5
Ca0.85K0.15Cu1Cl2O2,24.0,Ca0.85 K0.15 Cu1 Cl2 O2,"[Element Ca, Element K, Element Cu, Element Cl, Element O]","{'Ca': 0.85, 'K': 0.15, 'Cu': 1.0, 'Cl': 2.0, 'O': 2.0}",Cuprates,5
Ca1.8K0.2Cu1Cl2O2,24.0,Ca1.8 K0.2 Cu1 Cl2 O2,"[Element Ca, Element K, Element Cu, Element Cl, Element O]","{'Ca': 1.8, 'K': 0.2, 'Cu': 1.0, 'Cl': 2.0, 'O': 2.0}",Cuprates,5
Ca0.75K0.25Cu1Cl2O2,24.0,Ca0.75 K0.25 Cu1 Cl2 O2,"[Element Ca, Element K, Element Cu, Element Cl, Element O]","{'Ca': 0.75, 'K': 0.25, 'Cu': 1.0, 'Cl': 2.0, 'O': 2.0}",Cuprates,5
Ca1.7K0.3Cu1Cl2O2,24.0,Ca1.7 K0.3 Cu1 Cl2 O2,"[Element Ca, Element K, Element Cu, Element Cl, Element O]","{'Ca': 1.7, 'K': 0.3, 'Cu': 1.0, 'Cl': 2.0, 'O': 2.0}",Cuprates,5
Bi2Sr2Ca1Cu2O8.26,75.0,Bi2 Sr2 Ca1 Cu2 O8.26,"[Element Bi, Element Sr, Element Ca, Element Cu, Element O]","{'Bi': 2.0, 'Sr': 2.0, 'Ca': 1.0, 'Cu': 2.0, 'O': 8.26}",Cuprates,5
Hg1Ba2Cu1O4.08,94.0,Hg1 Ba2 Cu1 O4.08,"[Element Hg, Element Ba, Element Cu, Element O]","{'Hg': 1.0, 'Ba': 2.0, 'Cu': 1.0, 'O': 4.08}",Cuprates,4
Hg1Ba2Cu1O4.01,68.0,Hg1 Ba2 Cu1 O4.01,"[Element Hg, Element Ba, Element Cu, Element O]","{'Hg': 1.0, 'Ba': 2.0, 'Cu': 1.0, 'O': 4.01}",Cuprates,4
Hg1Ba2Cu1O4.12,89.0,Hg1 Ba2 Cu1 O4.12,"[Element Hg, Element Ba, Element Cu, Element O]","{'Hg': 1.0, 'Ba': 2.0, 'Cu': 1.0, 'O': 4.12}",Cuprates,4
Li1Ti1.91Cu0.09O4,14.4,Li1 Ti1.91 Cu0.09 O4,"[Element Li, Element Ti, Element Cu, Element O]","{'Li': 1.0, 'Ti': 1.91, 'Cu': 0.09, 'O': 4.0}",Cuprates,4
Tl1Ba1Sr1Ca1Cu2O7,16.0,Tl1 Ba1 Sr1 Ca1 Cu2 O7,"[Element Tl, Element Ba, Element Sr, Element Ca, Element Cu, Element O]","{'Tl': 1.0, 'Ba': 1.0, 'Sr': 1.0, 'Ca': 1.0, 'Cu': 2.0, 'O': 7.0}",Cuprates,6
Tl1Ba2Sr1Ca2Cu3O9,92.0,Tl1 Ba2 Sr1 Ca2 Cu3 O9,"[Element Tl, Element Ba, Element Sr, Element Ca, Element Cu, Element O]","{'Tl': 1.0, 'Ba': 2.0, 'Sr': 1.0, 'Ca': 2.0, 'Cu': 3.0, 'O': 9.0}",Cuprates,6
Pr0.2Ca0.8Ba1La1Cu3O7.1,33.5,Pr0.2 Ca0.8 Ba1 La1 Cu3 O7.1,"[Element Pr, Element Ca, Element Ba, Element La, Element Cu, Element O]","{'Pr': 0.2, 'Ca': 0.8, 'Ba': 1.0, 'La': 1.0, 'Cu': 3.0, 'O': 7.1}",Cuprates,6
Ca1Ba1La1Cu3O6.97,64.0,Ca1 Ba1 La1 Cu3 O6.97,"[Element Ca, Element Ba, Element La, Element Cu, Element O]","{'Ca': 1.0, 'Ba': 1.0, 'La': 1.0, 'Cu': 3.0, 'O': 6.97}",Cuprates,5
C60Tb2.75,5.4,C60 Tb2.75,"[Element C, Element Tb]","{'C': 60.0, 'Tb': 2.75}",Other,2
C60Sm3,8.0,C60 Sm3,"[Element C, Element Sm]","{'C': 60.0, 'Sm': 3.0}",Other,2
Sm1Ba2Cu3O6.99,90.7,Sm1 Ba2 Cu3 O6.99,"[Element Sm, Element Ba, Element Cu, Element O]","{'Sm': 1.0, 'Ba': 2.0, 'Cu': 3.0, 'O': 6.99}",Cuprates,4
Sm1Ba2Cu3O6.86,91.0,Sm1 Ba2 Cu3 O6.86,"[Element Sm, Element Ba, Element Cu, Element O]","{'Sm': 1.0, 'Ba': 2.0, 'Cu': 3.0, 'O': 6.86}",Cuprates,4
Sm1Ba2Cu3O6.82,59.2,Sm1 Ba2 Cu3 O6.82,"[Element Sm, Element Ba, Element Cu, Element O]","{'Sm': 1.0, 'Ba': 2.0, 'Cu': 3.0, 'O': 6.82}",Cuprates,4
Sm1Ba2Cu3O6.62,34.2,Sm1 Ba2 Cu3 O6.62,"[Element Sm, Element Ba, Element Cu, Element O]","{'Sm': 1.0, 'Ba': 2.0, 'Cu': 3.0, 'O': 6.62}",Cuprates,4
Sm1.05Ba1.95Cu3O6.99,88.5,Sm1.05 Ba1.95 Cu3 O6.99,"[Element Sm, Element Ba, Element Cu, Element O]","{'Sm': 1.05, 'Ba': 1.95, 'Cu': 3.0, 'O': 6.99}",Cuprates,4
Sm1.15Ba1.85Cu3O7,83.0,Sm1.15 Ba1.85 Cu3 O7,"[Element Sm, Element Ba, Element Cu, Element O]","{'Sm': 1.15, 'Ba': 1.85, 'Cu': 3.0, 'O': 7.0}",Cuprates,4
Sm1.39Ba1.61Cu3O7.07,31.8,Sm1.39 Ba1.61 Cu3 O7.07,"[Element Sm, Element Ba, Element Cu, Element O]","{'Sm': 1.39, 'Ba': 1.61, 'Cu': 3.0, 'O': 7.07}",Cuprates,4
Tl1.2Sr2Ca0.8Cu2O6.862,60.0,Tl1.2 Sr2 Ca0.8 Cu2 O6.862,"[Element Tl, Element Sr, Element Ca, Element Cu, Element O]","{'Tl': 1.2, 'Sr': 2.0, 'Ca': 0.8, 'Cu': 2.0, 'O': 6.862}",Cuprates,5
La1Ba1.87Ca0.13Cu3O6.923,82.0,La1 Ba1.87 Ca0.13 Cu3 O6.923,"[Element La, Element Ba, Element Ca, Element Cu, Element O]","{'La': 1.0, 'Ba': 1.87, 'Ca': 0.13, 'Cu': 3.0, 'O': 6.923}",Cuprates,5
La1Ba1.75Ca0.25Cu3O6.951,80.0,La1 Ba1.75 Ca0.25 Cu3 O6.951,"[Element La, Element Ba, Element Ca, Element Cu, Element O]","{'La': 1.0, 'Ba': 1.75, 'Ca': 0.25, 'Cu': 3.0, 'O': 6.951}",Cuprates,5
La1Ba1.5Ca0.5Cu3O6.96,79.9,La1 Ba1.5 Ca0.5 Cu3 O6.96,"[Element La, Element Ba, Element Ca, Element Cu, Element O]","{'La': 1.0, 'Ba': 1.5, 'Ca': 0.5, 'Cu': 3.0, 'O': 6.96}",Cuprates,5
La1Ba1.25Ca0.75Cu3O6.958,79.9,La1 Ba1.25 Ca0.75 Cu3 O6.958,"[Element La, Element Ba, Element Ca, Element Cu, Element O]","{'La': 1.0, 'Ba': 1.25, 'Ca': 0.75, 'Cu': 3.0, 'O': 6.958}",Cuprates,5
La1Ba1.75Sr0.25Cu3O6.946,72.5,La1 Ba1.75 Sr0.25 Cu3 O6.946,"[Element La, Element Ba, Element Sr, Element Cu, Element O]","{'La': 1.0, 'Ba': 1.75, 'Sr': 0.25, 'Cu': 3.0, 'O': 6.946}",Cuprates,5
La1Ba1.5Sr0.5Cu3O6.967,65.2,La1 Ba1.5 Sr0.5 Cu3 O6.967,"[Element La, Element Ba, Element Sr, Element Cu, Element O]","{'La': 1.0, 'Ba': 1.5, 'Sr': 0.5, 'Cu': 3.0, 'O': 6.967}",Cuprates,5
La1Ba1.25Sr0.75Cu3O6.996,54.1,La1 Ba1.25 Sr0.75 Cu3 O6.996,"[Element La, Element Ba, Element Sr, Element Cu, Element O]","{'La': 1.0, 'Ba': 1.25, 'Sr': 0.75, 'Cu': 3.0, 'O': 6.996}",Cuprates,5
La1Ba1Sr1Cu3O7.01,41.5,La1 Ba1 Sr1 Cu3 O7.01,"[Element La, Element Ba, Element Sr, Element Cu, Element O]","{'La': 1.0, 'Ba': 1.0, 'Sr': 1.0, 'Cu': 3.0, 'O': 7.01}",Cuprates,5
Hg1Ba2Cu1O4.03,49.9,Hg1 Ba2 Cu1 O4.03,"[Element Hg, Element Ba, Element Cu, Element O]","{'Hg': 1.0, 'Ba': 2.0, 'Cu': 1.0, 'O': 4.03}",Cuprates,4
Hg1Ba2Cu1O4.18,93.2,Hg1 Ba2 Cu1 O4.18,"[Element Hg, Element Ba, Element Cu, Element O]","{'Hg': 1.0, 'Ba': 2.0, 'Cu': 1.0, 'O': 4.18}",Cuprates,4
Hg1Ba2Cu1O4.27,86.7,Hg1 Ba2 Cu1 O4.27,"[Element Hg, Element Ba, Element Cu, Element O]","{'Hg': 1.0, 'Ba': 2.0, 'Cu': 1.0, 'O': 4.27}",Cuprates,4
Hg1Ba2Cu1O4.36,40.0,Hg1 Ba2 Cu1 O4.36,"[Element Hg, Element Ba, Element Cu, Element O]","{'Hg': 1.0, 'Ba': 2.0, 'Cu': 1.0, 'O': 4.36}",Cuprates,4
Hg1Ba2Cu1O4.39,24.6,Hg1 Ba2 Cu1 O4.39,"[Element Hg, Element Ba, Element Cu, Element O]","{'Hg': 1.0, 'Ba': 2.0, 'Cu': 1.0, 'O': 4.39}",Cuprates,4
Er1Ba2Cu3O6.953,90.9,Er1 Ba2 Cu3 O6.953,"[Element Er, Element Ba, Element Cu, Element O]","{'Er': 1.0, 'Ba': 2.0, 'Cu': 3.0, 'O': 6.953}",Cuprates,4
Er0.95Hf0.05Ba2Cu3O6.938,86.0,Er0.95 Hf0.05 Ba2 Cu3 O6.938,"[Element Er, Element Hf, Element Ba, Element Cu, Element O]","{'Er': 0.95, 'Hf': 0.05, 'Ba': 2.0, 'Cu': 3.0, 'O': 6.938}",Cuprates,5
Er0.9Hf0.1Ba2Cu3O6.862,82.9,Er0.9 Hf0.1 Ba2 Cu3 O6.862,"[Element Er, Element Hf, Element Ba, Element Cu, Element O]","{'Er': 0.9, 'Hf': 0.1, 'Ba': 2.0, 'Cu': 3.0, 'O': 6.862}",Cuprates,5
Er0.85Hf0.15Ba2Cu3O6.813,79.9,Er0.85 Hf0.15 Ba2 Cu3 O6.813,"[Element Er, Element Hf, Element Ba, Element Cu, Element O]","{'Er': 0.85, 'Hf': 0.15, 'Ba': 2.0, 'Cu': 3.0, 'O': 6.813}",Cuprates,5
Er0.8Hf0.2Ba2Cu3O6.772,78.8,Er0.8 Hf0.2 Ba2 Cu3 O6.772,"[Element Er, Element Hf, Element Ba, Element Cu, Element O]","{'Er': 0.8, 'Hf': 0.2, 'Ba': 2.0, 'Cu': 3.0, 'O': 6.772}",Cuprates,5
Er0.8Ca0.05Hf0.15Ba2Cu3O6.706,64.8,Er0.8 Ca0.05 Hf0.15 Ba2 Cu3 O6.706,"[Element Er, Element Ca, Element Hf, Element Ba, Element Cu, Element O]","{'Er': 0.8, 'Ca': 0.05, 'Hf': 0.15, 'Ba': 2.0, 'Cu': 3.0, 'O': 6.706}",Cuprates,6
Er0.75Ca0.1Hf0.15Ba2Cu3O6.796,73.6,Er0.75 Ca0.1 Hf0.15 Ba2 Cu3 O6.796,"[Element Er, Element Ca, Element Hf, Element Ba, Element Cu, Element O]","{'Er': 0.75, 'Ca': 0.1, 'Hf': 0.15, 'Ba': 2.0, 'Cu': 3.0, 'O': 6.796}",Cuprates,6
Er0.7Ca0.15Hf0.15Ba2Cu3O6.821,77.3,Er0.7 Ca0.15 Hf0.15 Ba2 Cu3 O6.821,"[Element Er, Element Ca, Element Hf, Element Ba, Element Cu, Element O]","{'Er': 0.7, 'Ca': 0.15, 'Hf': 0.15, 'Ba': 2.0, 'Cu': 3.0, 'O': 6.821}",Cuprates,6
Er0.65Ca0.2Hf0.15Ba2Cu3O6.83,80.9,Er0.65 Ca0.2 Hf0.15 Ba2 Cu3 O6.83,"[Element Er, Element Ca, Element Hf, Element Ba, Element Cu, Element O]","{'Er': 0.65, 'Ca': 0.2, 'Hf': 0.15, 'Ba': 2.0, 'Cu': 3.0, 'O': 6.83}",Cuprates,6
Er0.6Ca0.25Hf0.15Ba2Cu3O7.02,84.7,Er0.6 Ca0.25 Hf0.15 Ba2 Cu3 O7.02,"[Element Er, Element Ca, Element Hf, Element Ba, Element Cu, Element O]","{'Er': 0.6, 'Ca': 0.25, 'Hf': 0.15, 'Ba': 2.0, 'Cu': 3.0, 'O': 7.02}",Cuprates,6
Er0.55Ca0.3Hf0.15Ba2Cu3O7.05,72.2,Er0.55 Ca0.3 Hf0.15 Ba2 Cu3 O7.05,"[Element Er, Element Ca, Element Hf, Element Ba, Element Cu, Element O]","{'Er': 0.55, 'Ca': 0.3, 'Hf': 0.15, 'Ba': 2.0, 'Cu': 3.0, 'O': 7.05}",Cuprates,6
Er0.45Ca0.4Hf0.15Ba2Cu3O7.1,66.0,Er0.45 Ca0.4 Hf0.15 Ba2 Cu3 O7.1,"[Element Er, Element Ca, Element Hf, Element Ba, Element Cu, Element O]","{'Er': 0.45, 'Ca': 0.4, 'Hf': 0.15, 'Ba': 2.0, 'Cu': 3.0, 'O': 7.1}",Cuprates,6
La2.5Ca1Ba2.5Cu6O14.146,79.0,La2.5 Ca1 Ba2.5 Cu6 O14.146,"[Element La, Element Ca, Element Ba, Element Cu, Element O]","{'La': 2.5, 'Ca': 1.0, 'Ba': 2.5, 'Cu': 6.0, 'O': 14.146}",Cuprates,5
La2.4Ca1.2Ba2.4Cu6O14.082,79.0,La2.4 Ca1.2 Ba2.4 Cu6 O14.082,"[Element La, Element Ca, Element Ba, Element Cu, Element O]","{'La': 2.4, 'Ca': 1.2, 'Ba': 2.4, 'Cu': 6.0, 'O': 14.082}",Cuprates,5
La2.375Ca1.25Ba2.375Cu6O14.062,78.0,La2.375 Ca1.25 Ba2.375 Cu6 O14.062,"[Element La, Element Ca, Element Ba, Element Cu, Element O]","{'La': 2.375, 'Ca': 1.25, 'Ba': 2.375, 'Cu': 6.0, 'O': 14.062}",Cuprates,5
La2.25Ca1.5Ba2.25Cu6O13.93,74.0,La2.25 Ca1.5 Ba2.25 Cu6 O13.93,"[Element La, Element Ca, Element Ba, Element Cu, Element O]","{'La': 2.25, 'Ca': 1.5, 'Ba': 2.25, 'Cu': 6.0, 'O': 13.93}",Cuprates,5
La2Ca2Ba2Cu3O13.712,76.0,La2 Ca2 Ba2 Cu3 O13.712,"[Element La, Element Ca, Element Ba, Element Cu, Element O]","{'La': 2.0, 'Ca': 2.0, 'Ba': 2.0, 'Cu': 3.0, 'O': 13.712}",Cuprates,5
La2.85Ca0.3Ba2.85Cu6O14.252,22.0,La2.85 Ca0.3 Ba2.85 Cu6 O14.252,"[Element La, Element Ca, Element Ba, Element Cu, Element O]","{'La': 2.85, 'Ca': 0.3, 'Ba': 2.85, 'Cu': 6.0, 'O': 14.252}",Cuprates,5
La2.77Ca0.46Ba2.77Cu6O14.246,42.0,La2.77 Ca0.46 Ba2.77 Cu6 O14.246,"[Element La, Element Ca, Element Ba, Element Cu, Element O]","{'La': 2.77, 'Ca': 0.46, 'Ba': 2.77, 'Cu': 6.0, 'O': 14.246}",Cuprates,5
La2.7Ca0.6Ba2.7Cu6O14.186,74.0,La2.7 Ca0.6 Ba2.7 Cu6 O14.186,"[Element La, Element Ca, Element Ba, Element Cu, Element O]","{'La': 2.7, 'Ca': 0.6, 'Ba': 2.7, 'Cu': 6.0, 'O': 14.186}",Cuprates,5
La2.57Ca0.86Ba2.57Cu6O14.2,80.0,La2.57 Ca0.86 Ba2.57 Cu6 O14.2,"[Element La, Element Ca, Element Ba, Element Cu, Element O]","{'La': 2.57, 'Ca': 0.86, 'Ba': 2.57, 'Cu': 6.0, 'O': 14.2}",Cuprates,5
Ho1Ba2Cu3O6.87,92.3,Ho1 Ba2 Cu3 O6.87,"[Element Ho, Element Ba, Element Cu, Element O]","{'Ho': 1.0, 'Ba': 2.0, 'Cu': 3.0, 'O': 6.87}",Cuprates,4
Ho1Ba2Cu3O6.96,91.8,Ho1 Ba2 Cu3 O6.96,"[Element Ho, Element Ba, Element Cu, Element O]","{'Ho': 1.0, 'Ba': 2.0, 'Cu': 3.0, 'O': 6.96}",Cuprates,4
Ca2Sr2Cu3Ga1O9,73.0,Ca2 Sr2 Cu3 Ga1 O9,"[Element Ca, Element Sr, Element Cu, Element Ga, Element O]","{'Ca': 2.0, 'Sr': 2.0, 'Cu': 3.0, 'Ga': 1.0, 'O': 9.0}",Cuprates,5
Er1Ba2Cu3O6.94,91.5,Er1 Ba2 Cu3 O6.94,"[Element Er, Element Ba, Element Cu, Element O]","{'Er': 1.0, 'Ba': 2.0, 'Cu': 3.0, 'O': 6.94}",Cuprates,4
Er1Ba2Cu2.94Co0.06O6.8,73.0,Er1 Ba2 Cu2.94 Co0.06 O6.8,"[Element Er, Element Ba, Element Cu, Element Co, Element O]","{'Er': 1.0, 'Ba': 2.0, 'Cu': 2.94, 'Co': 0.06, 'O': 6.8}",Cuprates,5
Er1Ba2Cu2.88Co0.12O6.78,46.0,Er1 Ba2 Cu2.88 Co0.12 O6.78,"[Element Er, Element Ba, Element Cu, Element Co, Element O]","{'Er': 1.0, 'Ba': 2.0, 'Cu': 2.88, 'Co': 0.12, 'O': 6.78}",Cuprates,5
Er1Ba2Cu2.28Co0.18O6.74,34.0,Er1 Ba2 Cu2.28 Co0.18 O6.74,"[Element Er, Element Ba, Element Cu, Element Co, Element O]","{'Er': 1.0, 'Ba': 2.0, 'Cu': 2.28, 'Co': 0.18, 'O': 6.74}",Cuprates,5
Er1Ba2Cu2.76Co0.24O6.75,31.0,Er1 Ba2 Cu2.76 Co0.24 O6.75,"[Element Er, Element Ba, Element Cu, Element Co, Element O]","{'Er': 1.0, 'Ba': 2.0, 'Cu': 2.76, 'Co': 0.24, 'O': 6.75}",Cuprates,5
Er0.94Ca0.06Ba2Cu2.82Co0.18O6.76,64.0,Er0.94 Ca0.06 Ba2 Cu2.82 Co0.18 O6.76,"[Element Er, Element Ca, Element Ba, Element Cu, Element Co, Element O]","{'Er': 0.94, 'Ca': 0.06, 'Ba': 2.0, 'Cu': 2.82, 'Co': 0.18, 'O': 6.76}",Cuprates,6
Er0.88Ca0.12Ba2Cu2.82Co0.18O6.93,77.5,Er0.88 Ca0.12 Ba2 Cu2.82 Co0.18 O6.93,"[Element Er, Element Ca, Element Ba, Element Cu, Element Co, Element O]","{'Er': 0.88, 'Ca': 0.12, 'Ba': 2.0, 'Cu': 2.82, 'Co': 0.18, 'O': 6.93}",Cuprates,6
Er0.82Ca0.18Ba2Cu2.82Co0.18O6.71,84.5,Er0.82 Ca0.18 Ba2 Cu2.82 Co0.18 O6.71,"[Element Er, Element Ca, Element Ba, Element Cu, Element Co, Element O]","{'Er': 0.82, 'Ca': 0.18, 'Ba': 2.0, 'Cu': 2.82, 'Co': 0.18, 'O': 6.71}",Cuprates,6
Tl1Sr2Ca1Cu2O6.76,21.0,Tl1 Sr2 Ca1 Cu2 O6.76,"[Element Tl, Element Sr, Element Ca, Element Cu, Element O]","{'Tl': 1.0, 'Sr': 2.0, 'Ca': 1.0, 'Cu': 2.0, 'O': 6.76}",Cuprates,5
Tl1Sr2Ca1Cu2O6.75,37.0,Tl1 Sr2 Ca1 Cu2 O6.75,"[Element Tl, Element Sr, Element Ca, Element Cu, Element O]","{'Tl': 1.0, 'Sr': 2.0, 'Ca': 1.0, 'Cu': 2.0, 'O': 6.75}",Cuprates,5
Tl1Sr2Ca1Cu2O6.74,43.0,Tl1 Sr2 Ca1 Cu2 O6.74,"[Element Tl, Element Sr, Element Ca, Element Cu, Element O]","{'Tl': 1.0, 'Sr': 2.0, 'Ca': 1.0, 'Cu': 2.0, 'O': 6.74}",Cuprates,5
Tl1Sr2Ca1Cu2O6.68,75.0,Tl1 Sr2 Ca1 Cu2 O6.68,"[Element Tl, Element Sr, Element Ca, Element Cu, Element O]","{'Tl': 1.0, 'Sr': 2.0, 'Ca': 1.0, 'Cu': 2.0, 'O': 6.68}",Cuprates,5
Tl1Sr2Ca1Cu2O6.61,52.0,Tl1 Sr2 Ca1 Cu2 O6.61,"[Element Tl, Element Sr, Element Ca, Element Cu, Element O]","{'Tl': 1.0, 'Sr': 2.0, 'Ca': 1.0, 'Cu': 2.0, 'O': 6.61}",Cuprates,5
Tl1Sr2Ca1Cu2O6.58,43.0,Tl1 Sr2 Ca1 Cu2 O6.58,"[Element Tl, Element Sr, Element Ca, Element Cu, Element O]","{'Tl': 1.0, 'Sr': 2.0, 'Ca': 1.0, 'Cu': 2.0, 'O': 6.58}",Cuprates,5
Tl1Sr2Ca1Cu2O6.52,23.0,Tl1 Sr2 Ca1 Cu2 O6.52,"[Element Tl, Element Sr, Element Ca, Element Cu, Element O]","{'Tl': 1.0, 'Sr': 2.0, 'Ca': 1.0, 'Cu': 2.0, 'O': 6.52}",Cuprates,5
Er1Ba2Cu2.82Co0.18O6.74,34.0,Er1 Ba2 Cu2.82 Co0.18 O6.74,"[Element Er, Element Ba, Element Cu, Element Co, Element O]","{'Er': 1.0, 'Ba': 2.0, 'Cu': 2.82, 'Co': 0.18, 'O': 6.74}",Cuprates,5
Er0.94Ca0.04Ba2Cu2.82Co0.18O6.76,64.0,Er0.94 Ca0.04 Ba2 Cu2.82 Co0.18 O6.76,"[Element Er, Element Ca, Element Ba, Element Cu, Element Co, Element O]","{'Er': 0.94, 'Ca': 0.04, 'Ba': 2.0, 'Cu': 2.82, 'Co': 0.18, 'O': 6.76}",Cuprates,6