chemical_formula,Tc,composition,elements,stoichiometry,Category,num_elements
Nb0.8Ga0.17Ni0.03,11.8,Nb0.8 Ga0.17 Ni0.03,"[Element Nb, Element Ga, Element Ni]","{'Nb': 0.8, 'Ga': 0.17, 'Ni': 0.03}",Other,3
Nb0.8Ga0.16Ni0.04,10.6,Nb0.8 Ga0.16 Ni0.04,"[Element Nb, Element Ga, Element Ni]","{'Nb': 0.8, 'Ga': 0.16, 'Ni': 0.04}",Other,3
Nb0.8Ga0.15Ni0.05,9.4,Nb0.8 Ga0.15 Ni0.05,"[Element Nb, Element Ga, Element Ni]","{'Nb': 0.8, 'Ga': 0.15, 'Ni': 0.05}",Other,3
Nb0.8Ga0.14Ni0.06,8.7,Nb0.8 Ga0.14 Ni0.06,"[Element Nb, Element Ga, Element Ni]","{'Nb': 0.8, 'Ga': 0.14, 'Ni': 0.06}",Other,3
Nb0.8Ga0.13Ni0.07,8.1,Nb0.8 Ga0.13 Ni0.07,"[Element Nb, Element Ga, Element Ni]","{'Nb': 0.8, 'Ga': 0.13, 'Ni': 0.07}",Other,3
Nb0.8Ga0.195Cr0.005,14.9,Nb0.8 Ga0.195 Cr0.005,"[Element Nb, Element Ga, Element Cr]","{'Nb': 0.8, 'Ga': 0.195, 'Cr': 0.005}",Other,3
Nb0.8Ga0.19Cr0.01,13.6,Nb0.8 Ga0.19 Cr0.01,"[Element Nb, Element Ga, Element Cr]","{'Nb': 0.8, 'Ga': 0.19, 'Cr': 0.01}",Other,3
Nb0.8Ga0.18Cr0.02,13.1,Nb0.8 Ga0.18 Cr0.02,"[Element Nb, Element Ga, Element Cr]","{'Nb': 0.8, 'Ga': 0.18, 'Cr': 0.02}",Other,3
Nb0.8Ga0.17Cr0.03,11.5,Nb0.8 Ga0.17 Cr0.03,"[Element Nb, Element Ga, Element Cr]","{'Nb': 0.8, 'Ga': 0.17, 'Cr': 0.03}",Other,3
Nb0.8Ga0.16Cr0.04,10.6,Nb0.8 Ga0.16 Cr0.04,"[Element Nb, Element Ga, Element Cr]","{'Nb': 0.8, 'Ga': 0.16, 'Cr': 0.04}",Other,3
Nb0.8Ga0.15Cr0.05,9.7,Nb0.8 Ga0.15 Cr0.05,"[Element Nb, Element Ga, Element Cr]","{'Nb': 0.8, 'Ga': 0.15, 'Cr': 0.05}",Other,3
Nb0.8Ga0.14Cr0.06,8.6,Nb0.8 Ga0.14 Cr0.06,"[Element Nb, Element Ga, Element Cr]","{'Nb': 0.8, 'Ga': 0.14, 'Cr': 0.06}",Other,3
Ga25Nb75,17.6,Ga25 Nb75,"[Element Ga, Element Nb]","{'Ga': 25.0, 'Nb': 75.0}",Other,2
Nb75Ga15Al10,18.55,Nb75 Ga15 Al10,"[Element Nb, Element Ga, Element Al]","{'Nb': 75.0, 'Ga': 15.0, 'Al': 10.0}",Other,3
Nb75Ga10Al15,17.2,Nb75 Ga10 Al15,"[Element Nb, Element Ga, Element Al]","{'Nb': 75.0, 'Ga': 10.0, 'Al': 15.0}",Other,3
Nb75Ga7.5Al17.5,18.3,Nb75 Ga7.5 Al17.5,"[Element Nb, Element Ga, Element Al]","{'Nb': 75.0, 'Ga': 7.5, 'Al': 17.5}",Other,3
Nb75Ga5Al20,18.25,Nb75 Ga5 Al20,"[Element Nb, Element Ga, Element Al]","{'Nb': 75.0, 'Ga': 5.0, 'Al': 20.0}",Other,3
Al25Nb75,17.5,Al25 Nb75,"[Element Al, Element Nb]","{'Al': 25.0, 'Nb': 75.0}",Other,2
Nb1C0.5Ni0.5,17.3,Nb1 C0.5 Ni0.5,"[Element Nb, Element C, Element Ni]","{'Nb': 1.0, 'C': 0.5, 'Ni': 0.5}",Other,3
C0.99Nb1,10.6,C0.99 Nb1,"[Element C, Element Nb]","{'C': 0.99, 'Nb': 1.0}",Other,2
Nb0.8Ta0.2C1,9.9,Nb0.8 Ta0.2 C1,"[Element Nb, Element Ta, Element C]","{'Nb': 0.8, 'Ta': 0.2, 'C': 1.0}",Other,3
Nb0.6Ta0.4C1,9.4,Nb0.6 Ta0.4 C1,"[Element Nb, Element Ta, Element C]","{'Nb': 0.6, 'Ta': 0.4, 'C': 1.0}",Other,3
Nb0.25Ta0.75C1,9.8,Nb0.25 Ta0.75 C1,"[Element Nb, Element Ta, Element C]","{'Nb': 0.25, 'Ta': 0.75, 'C': 1.0}",Other,3
Nb0.95Mo0.05C1,12.1,Nb0.95 Mo0.05 C1,"[Element Nb, Element Mo, Element C]","{'Nb': 0.95, 'Mo': 0.05, 'C': 1.0}",Other,3
Nb0.85Mo0.15C1,12.7,Nb0.85 Mo0.15 C1,"[Element Nb, Element Mo, Element C]","{'Nb': 0.85, 'Mo': 0.15, 'C': 1.0}",Other,3
Nb0.51Mo0.49C1,12.22,Nb0.51 Mo0.49 C1,"[Element Nb, Element Mo, Element C]","{'Nb': 0.51, 'Mo': 0.49, 'C': 1.0}",Other,3
Nb0.3Mo0.7C1,12.1,Nb0.3 Mo0.7 C1,"[Element Nb, Element Mo, Element C]","{'Nb': 0.3, 'Mo': 0.7, 'C': 1.0}",Other,3
Nb0.15Mo0.85C1,11.673,Nb0.15 Mo0.85 C1,"[Element Nb, Element Mo, Element C]","{'Nb': 0.15, 'Mo': 0.85, 'C': 1.0}",Other,3
Ga20Nb80,15.4,Ga20 Nb80,"[Element Ga, Element Nb]","{'Ga': 20.0, 'Nb': 80.0}",Other,2
Nb80Ga19Co1,13.7,Nb80 Ga19 Co1,"[Element Nb, Element Ga, Element Co]","{'Nb': 80.0, 'Ga': 19.0, 'Co': 1.0}",Other,3
Nb80Ga18Co2,12.2,Nb80 Ga18 Co2,"[Element Nb, Element Ga, Element Co]","{'Nb': 80.0, 'Ga': 18.0, 'Co': 2.0}",Other,3
Nb80Ga17Co3,11.0,Nb80 Ga17 Co3,"[Element Nb, Element Ga, Element Co]","{'Nb': 80.0, 'Ga': 17.0, 'Co': 3.0}",Other,3
Nb80Ga16Co4,9.85,Nb80 Ga16 Co4,"[Element Nb, Element Ga, Element Co]","{'Nb': 80.0, 'Ga': 16.0, 'Co': 4.0}",Other,3
Nb80Ga15Co5,9.17,Nb80 Ga15 Co5,"[Element Nb, Element Ga, Element Co]","{'Nb': 80.0, 'Ga': 15.0, 'Co': 5.0}",Other,3
Nb80Ga14Co6,8.1,Nb80 Ga14 Co6,"[Element Nb, Element Ga, Element Co]","{'Nb': 80.0, 'Ga': 14.0, 'Co': 6.0}",Other,3
Nb80Ga13Co7,7.92,Nb80 Ga13 Co7,"[Element Nb, Element Ga, Element Co]","{'Nb': 80.0, 'Ga': 13.0, 'Co': 7.0}",Other,3
Nb80Ga19.7Fe0.03,17.3,Nb80 Ga19.7 Fe0.03,"[Element Nb, Element Ga, Element Fe]","{'Nb': 80.0, 'Ga': 19.7, 'Fe': 0.03}",Fe-based,3
Nb80Ga19.4Fe0.06,16.2,Nb80 Ga19.4 Fe0.06,"[Element Nb, Element Ga, Element Fe]","{'Nb': 80.0, 'Ga': 19.4, 'Fe': 0.06}",Fe-based,3
Nb80Ga19Fe1,15.0,Nb80 Ga19 Fe1,"[Element Nb, Element Ga, Element Fe]","{'Nb': 80.0, 'Ga': 19.0, 'Fe': 1.0}",Fe-based,3
Nb80Ga18Fe2,13.1,Nb80 Ga18 Fe2,"[Element Nb, Element Ga, Element Fe]","{'Nb': 80.0, 'Ga': 18.0, 'Fe': 2.0}",Fe-based,3
Nb80Ga17Fe3,11.6,Nb80 Ga17 Fe3,"[Element Nb, Element Ga, Element Fe]","{'Nb': 80.0, 'Ga': 17.0, 'Fe': 3.0}",Fe-based,3
Nb80Ga16Fe4,10.3,Nb80 Ga16 Fe4,"[Element Nb, Element Ga, Element Fe]","{'Nb': 80.0, 'Ga': 16.0, 'Fe': 4.0}",Fe-based,3
Nb80Ga19Mn1,11.2,Nb80 Ga19 Mn1,"[Element Nb, Element Ga, Element Mn]","{'Nb': 80.0, 'Ga': 19.0, 'Mn': 1.0}",Other,3
Nb80Ga18Mn2,7.79,Nb80 Ga18 Mn2,"[Element Nb, Element Ga, Element Mn]","{'Nb': 80.0, 'Ga': 18.0, 'Mn': 2.0}",Other,3
Nb80Ga17Mn3,7.1,Nb80 Ga17 Mn3,"[Element Nb, Element Ga, Element Mn]","{'Nb': 80.0, 'Ga': 17.0, 'Mn': 3.0}",Other,3
Nb80Ga16Mn4,6.03,Nb80 Ga16 Mn4,"[Element Nb, Element Ga, Element Mn]","{'Nb': 80.0, 'Ga': 16.0, 'Mn': 4.0}",Other,3
Nb80Ga15Mn5,5.0,Nb80 Ga15 Mn5,"[Element Nb, Element Ga, Element Mn]","{'Nb': 80.0, 'Ga': 15.0, 'Mn': 5.0}",Other,3
Ga22Nb78,15.6,Ga22 Nb78,"[Element Ga, Element Nb]","{'Ga': 22.0, 'Nb': 78.0}",Other,2
Nb78Ga21Mn1,11.2,Nb78 Ga21 Mn1,"[Element Nb, Element Ga, Element Mn]","{'Nb': 78.0, 'Ga': 21.0, 'Mn': 1.0}",Other,3
Nb78Ga20Mn2,8.87,Nb78 Ga20 Mn2,"[Element Nb, Element Ga, Element Mn]","{'Nb': 78.0, 'Ga': 20.0, 'Mn': 2.0}",Other,3
Nb78Ga19Mn3,7.42,Nb78 Ga19 Mn3,"[Element Nb, Element Ga, Element Mn]","{'Nb': 78.0, 'Ga': 19.0, 'Mn': 3.0}",Other,3
Nb78Ga18Mn4,5.97,Nb78 Ga18 Mn4,"[Element Nb, Element Ga, Element Mn]","{'Nb': 78.0, 'Ga': 18.0, 'Mn': 4.0}",Other,3
Nb78Ga16Mn6,5.53,Nb78 Ga16 Mn6,"[Element Nb, Element Ga, Element Mn]","{'Nb': 78.0, 'Ga': 16.0, 'Mn': 6.0}",Other,3
Nb3.05Al0.7125Ge0.19,17.9,Nb3.05 Al0.7125 Ge0.19,"[Element Nb, Element Al, Element Ge]","{'Nb': 3.05, 'Al': 0.7125, 'Ge': 0.19}",Other,3
Nb3.07Al0.5859Ge0.279,17.4,Nb3.07 Al0.5859 Ge0.279,"[Element Nb, Element Al, Element Ge]","{'Nb': 3.07, 'Al': 0.5859, 'Ge': 0.279}",Other,3
Nb3.2Al0.24Ge0.4,10.2,Nb3.2 Al0.24 Ge0.4,"[Element Nb, Element Al, Element Ge]","{'Nb': 3.2, 'Al': 0.24, 'Ge': 0.4}",Other,3
Al0.72Nb3.28,6.2,Al0.72 Nb3.28,"[Element Al, Element Nb]","{'Al': 0.72, 'Nb': 3.28}",Other,2
Nb2.96Al0.7592Ge0.3224,19.8,Nb2.96 Al0.7592 Ge0.3224,"[Element Nb, Element Al, Element Ge]","{'Nb': 2.96, 'Al': 0.7592, 'Ge': 0.3224}",Other,3
Nb3Al0.83Ge0.17,19.6,Nb3 Al0.83 Ge0.17,"[Element Nb, Element Al, Element Ge]","{'Nb': 3.0, 'Al': 0.83, 'Ge': 0.17}",Other,3
Nb3Al0.76Ge0.24,20.4,Nb3 Al0.76 Ge0.24,"[Element Nb, Element Al, Element Ge]","{'Nb': 3.0, 'Al': 0.76, 'Ge': 0.24}",Other,3
Nb3Al0.71Ge0.29,20.7,Nb3 Al0.71 Ge0.29,"[Element Nb, Element Al, Element Ge]","{'Nb': 3.0, 'Al': 0.71, 'Ge': 0.29}",Other,3
Nb3Al0.66Ge0.34,20.4,Nb3 Al0.66 Ge0.34,"[Element Nb, Element Al, Element Ge]","{'Nb': 3.0, 'Al': 0.66, 'Ge': 0.34}",Other,3
Nb3Al0.3Ge0.7,9.1,Nb3 Al0.3 Ge0.7,"[Element Nb, Element Al, Element Ge]","{'Nb': 3.0, 'Al': 0.3, 'Ge': 0.7}",Other,3
Nb3Al0.15Ge0.85,7.4,Nb3 Al0.15 Ge0.85,"[Element Nb, Element Al, Element Ge]","{'Nb': 3.0, 'Al': 0.15, 'Ge': 0.85}",Other,3
Nb80Ga17.5Cr2.5,12.5,Nb80 Ga17.5 Cr2.5,"[Element Nb, Element Ga, Element Cr]","{'Nb': 80.0, 'Ga': 17.5, 'Cr': 2.5}",Other,3
Pb1Te1Pb1S1,6.03,Pb2 Te1 S1,"[Element Pb, Element Te, Element S]","{'Pb': 2.0, 'Te': 1.0, 'S': 1.0}",Other,3
Pb1Te1Sn1Te1,2.97,Pb1 Te2 Sn1,"[Element Pb, Element Te, Element Sn]","{'Pb': 1.0, 'Te': 2.0, 'Sn': 1.0}",Other,3
Pb1S1Pb1Se1,4.59,Pb2 S1 Se1,"[Element Pb, Element S, Element Se]","{'Pb': 2.0, 'S': 1.0, 'Se': 1.0}",Other,3
N4H12Na2Cs1C60,29.6,N4 H12 Na2 Cs1 C60,"[Element N, Element H, Element Na, Element Cs, Element C]","{'N': 4.0, 'H': 12.0, 'Na': 2.0, 'Cs': 1.0, 'C': 60.0}",Hydrides,5
N0.75H2.25Na1K2C60,11.8,N0.75 H2.25 Na1 K2 C60,"[Element N, Element H, Element Na, Element K, Element C]","{'N': 0.75, 'H': 2.25, 'Na': 1.0, 'K': 2.0, 'C': 60.0}",Hydrides,5
N0.85H2.55Na1K2C60,9.0,N0.85 H2.55 Na1 K2 C60,"[Element N, Element H, Element Na, Element K, Element C]","{'N': 0.85, 'H': 2.55, 'Na': 1.0, 'K': 2.0, 'C': 60.0}",Hydrides,5
N0.74H2.22Na1Rb2C60,17.0,N0.74 H2.22 Na1 Rb2 C60,"[Element N, Element H, Element Na, Element Rb, Element C]","{'N': 0.74, 'H': 2.22, 'Na': 1.0, 'Rb': 2.0, 'C': 60.0}",Hydrides,5
N0.86H2.58Na1Rb2C60,12.0,N0.86 H2.58 Na1 Rb2 C60,"[Element N, Element H, Element Na, Element Rb, Element C]","{'N': 0.86, 'H': 2.58, 'Na': 1.0, 'Rb': 2.0, 'C': 60.0}",Hydrides,5
N0.93H2.79Na1Rb2C60,8.5,N0.93 H2.79 Na1 Rb2 C60,"[Element N, Element H, Element Na, Element Rb, Element C]","{'N': 0.93, 'H': 2.79, 'Na': 1.0, 'Rb': 2.0, 'C': 60.0}",Hydrides,5
N0.84H2.52Na1K2C60,13.0,N0.84 H2.52 Na1 K2 C60,"[Element N, Element H, Element Na, Element K, Element C]","{'N': 0.84, 'H': 2.52, 'Na': 1.0, 'K': 2.0, 'C': 60.0}",Hydrides,5
N0.87H2.61Na1K2C60,11.0,N0.87 H2.61 Na1 K2 C60,"[Element N, Element H, Element Na, Element K, Element C]","{'N': 0.87, 'H': 2.61, 'Na': 1.0, 'K': 2.0, 'C': 60.0}",Hydrides,5
N1H3Na1K2C60,8.0,N1 H3 Na1 K2 C60,"[Element N, Element H, Element Na, Element K, Element C]","{'N': 1.0, 'H': 3.0, 'Na': 1.0, 'K': 2.0, 'C': 60.0}",Hydrides,5
Pb1Se1Eu1S1,2.48,Pb1 Se1 Eu1 S1,"[Element Pb, Element Se, Element Eu, Element S]","{'Pb': 1.0, 'Se': 1.0, 'Eu': 1.0, 'S': 1.0}",Other,4
Eu0.75Sn0.25Mo6S7.2Se0.8,3.9,Eu0.75 Sn0.25 Mo6 S7.2 Se0.8,"[Element Eu, Element Sn, Element Mo, Element S, Element Se]","{'Eu': 0.75, 'Sn': 0.25, 'Mo': 6.0, 'S': 7.2, 'Se': 0.8}",Other,5
B2Ta1,9.5,B2 Ta1,"[Element B, Element Ta]","{'B': 2.0, 'Ta': 1.0}",Other,2
Mg0.9Li0.1B2,37.4,Mg0.9 Li0.1 B2,"[Element Mg, Element Li, Element B]","{'Mg': 0.9, 'Li': 0.1, 'B': 2.0}",Other,3
Mg0.7Li0.3B2,32.1,Mg0.7 Li0.3 B2,"[Element Mg, Element Li, Element B]","{'Mg': 0.7, 'Li': 0.3, 'B': 2.0}",Other,3
Ce1In3,0.17,Ce1 In3,"[Element Ce, Element In]","{'Ce': 1.0, 'In': 3.0}",Other,2
Ce1Cu2Si1.9Ge0.1,0.2,Ce1 Cu2 Si1.9 Ge0.1,"[Element Ce, Element Cu, Element Si, Element Ge]","{'Ce': 1.0, 'Cu': 2.0, 'Si': 1.9, 'Ge': 0.1}",Other,4
Ce1Cu2Si1.7Ge0.3,0.1,Ce1 Cu2 Si1.7 Ge0.3,"[Element Ce, Element Cu, Element Si, Element Ge]","{'Ce': 1.0, 'Cu': 2.0, 'Si': 1.7, 'Ge': 0.3}",Other,4
Nb3S4,4.0,Nb3 S4,"[Element Nb, Element S]","{'Nb': 3.0, 'S': 4.0}",Other,2
Nb2Se2,6.9,Nb2 Se2,"[Element Nb, Element Se]","{'Nb': 2.0, 'Se': 2.0}",Other,2
Ce1Rh2Si2,0.26,Ce1 Rh2 Si2,"[Element Ce, Element Rh, Element Si]","{'Ce': 1.0, 'Rh': 2.0, 'Si': 2.0}",Other,3
Mg1C1.25Ni3,7.3,Mg1 C1.25 Ni3,"[Element Mg, Element C, Element Ni]","{'Mg': 1.0, 'C': 1.25, 'Ni': 3.0}",Other,3
Mg1C1.5Ni3,8.4,Mg1 C1.5 Ni3,"[Element Mg, Element C, Element Ni]","{'Mg': 1.0, 'C': 1.5, 'Ni': 3.0}",Other,3
Mg1C1Ni2.97Cu0.03,6.8,Mg1 C1 Ni2.97 Cu0.03,"[Element Mg, Element C, Element Ni, Element Cu]","{'Mg': 1.0, 'C': 1.0, 'Ni': 2.97, 'Cu': 0.03}",Other,4
Mg1C1Ni2.94Cu0.06,6.3,Mg1 C1 Ni2.94 Cu0.06,"[Element Mg, Element C, Element Ni, Element Cu]","{'Mg': 1.0, 'C': 1.0, 'Ni': 2.94, 'Cu': 0.06}",Other,4
Mg1C1Ni2.91Cu0.09,6.0,Mg1 C1 Ni2.91 Cu0.09,"[Element Mg, Element C, Element Ni, Element Cu]","{'Mg': 1.0, 'C': 1.0, 'Ni': 2.91, 'Cu': 0.09}",Other,4
Ce1Cu2.53Si2,0.62,Ce1 Cu2.53 Si2,"[Element Ce, Element Cu, Element Si]","{'Ce': 1.0, 'Cu': 2.53, 'Si': 2.0}",Other,3
B1Re3,4.7,B1 Re3,"[Element B, Element Re]","{'B': 1.0, 'Re': 3.0}",Other,2
B2Re1,6.3,B2 Re1,"[Element B, Element Re]","{'B': 2.0, 'Re': 1.0}",Other,2
La1Pt1.5Au0.5B2C1,10.65,La1 Pt1.5 Au0.5 B2 C1,"[Element La, Element Pt, Element Au, Element B, Element C]","{'La': 1.0, 'Pt': 1.5, 'Au': 0.5, 'B': 2.0, 'C': 1.0}",Other,5
K2Rb1C60,21.8,K2 Rb1 C60,"[Element K, Element Rb, Element C]","{'K': 2.0, 'Rb': 1.0, 'C': 60.0}",Other,3
Rb2K1C60,24.4,Rb2 K1 C60,"[Element Rb, Element K, Element C]","{'Rb': 2.0, 'K': 1.0, 'C': 60.0}",Other,3
Cu1S1.8Se0.2,2.2,Cu1 S1.8 Se0.2,"[Element Cu, Element S, Element Se]","{'Cu': 1.0, 'S': 1.8, 'Se': 0.2}",Other,3
Mg0.7Be0.3B2,39.0,Mg0.7 Be0.3 B2,"[Element Mg, Element Be, Element B]","{'Mg': 0.7, 'Be': 0.3, 'B': 2.0}",Other,3
Na3N1C60,14.7,Na3 N1 C60,"[Element Na, Element N, Element C]","{'Na': 3.0, 'N': 1.0, 'C': 60.0}",Other,3
Er0.25Ho0.75Rh4B4,6.44,Er0.25 Ho0.75 Rh4 B4,"[Element Er, Element Ho, Element Rh, Element B]","{'Er': 0.25, 'Ho': 0.75, 'Rh': 4.0, 'B': 4.0}",Other,4
Er0.16Ho0.84Rh4B4,5.95,Er0.16 Ho0.84 Rh4 B4,"[Element Er, Element Ho, Element Rh, Element B]","{'Er': 0.16, 'Ho': 0.84, 'Rh': 4.0, 'B': 4.0}",Other,4
Er0.11Ho0.89Rh4B4,5.71,Er0.11 Ho0.89 Rh4 B4,"[Element Er, Element Ho, Element Rh, Element B]","{'Er': 0.11, 'Ho': 0.89, 'Rh': 4.0, 'B': 4.0}",Other,4
Tb1.2Mo6S8,1.8,Tb1.2 Mo6 S8,"[Element Tb, Element Mo, Element S]","{'Tb': 1.2, 'Mo': 6.0, 'S': 8.0}",Other,3
Ho1.2Mo6S8,2.15,Ho1.2 Mo6 S8,"[Element Ho, Element Mo, Element S]","{'Ho': 1.2, 'Mo': 6.0, 'S': 8.0}",Other,3
Er1.2Mo6S8,2.2,Er1.2 Mo6 S8,"[Element Er, Element Mo, Element S]","{'Er': 1.2, 'Mo': 6.0, 'S': 8.0}",Other,3
Pr1Mo6S8,2.55,Pr1 Mo6 S8,"[Element Pr, Element Mo, Element S]","{'Pr': 1.0, 'Mo': 6.0, 'S': 8.0}",Other,3
Sm1.2Mo6S8,2.4,Sm1.2 Mo6 S8,"[Element Sm, Element Mo, Element S]","{'Sm': 1.2, 'Mo': 6.0, 'S': 8.0}",Other,3
Tm1.2Mo6S8,1.95,Tm1.2 Mo6 S8,"[Element Tm, Element Mo, Element S]","{'Tm': 1.2, 'Mo': 6.0, 'S': 8.0}",Other,3
Lu1.2Mo6S8,1.95,Lu1.2 Mo6 S8,"[Element Lu, Element Mo, Element S]","{'Lu': 1.2, 'Mo': 6.0, 'S': 8.0}",Other,3
La1Rh2Si2,0.074,La1 Rh2 Si2,"[Element La, Element Rh, Element Si]","{'La': 1.0, 'Rh': 2.0, 'Si': 2.0}",Other,3
Sr1Ga0.74Si1.26,3.5,Sr1 Ga0.74 Si1.26,"[Element Sr, Element Ga, Element Si]","{'Sr': 1.0, 'Ga': 0.74, 'Si': 1.26}",Other,3
La2Rh3Si5,4.4,La2 Rh3 Si5,"[Element La, Element Rh, Element Si]","{'La': 2.0, 'Rh': 3.0, 'Si': 5.0}",Other,3
Ce1Rh0.6Ir0.4In5,0.62,Ce1 Rh0.6 Ir0.4 In5,"[Element Ce, Element Rh, Element Ir, Element In]","{'Ce': 1.0, 'Rh': 0.6, 'Ir': 0.4, 'In': 5.0}",Other,4
Ce1Rh0.25Ir0.75In5,0.62,Ce1 Rh0.25 Ir0.75 In5,"[Element Ce, Element Rh, Element Ir, Element In]","{'Ce': 1.0, 'Rh': 0.25, 'Ir': 0.75, 'In': 5.0}",Other,4
Mg1B1.98C0.02,37.2,Mg1 B1.98 C0.02,"[Element Mg, Element B, Element C]","{'Mg': 1.0, 'B': 1.98, 'C': 0.02}",Other,3
Mg1B1.96C0.04,36.1,Mg1 B1.96 C0.04,"[Element Mg, Element B, Element C]","{'Mg': 1.0, 'B': 1.96, 'C': 0.04}",Other,3
Mg1B1.94C0.06,34.8,Mg1 B1.94 C0.06,"[Element Mg, Element B, Element C]","{'Mg': 1.0, 'B': 1.94, 'C': 0.06}",Other,3
Mg0.97Al0.03B2,37.3,Mg0.97 Al0.03 B2,"[Element Mg, Element Al, Element B]","{'Mg': 0.97, 'Al': 0.03, 'B': 2.0}",Other,3
Mg0.94Al0.06B2,37.0,Mg0.94 Al0.06 B2,"[Element Mg, Element Al, Element B]","{'Mg': 0.94, 'Al': 0.06, 'B': 2.0}",Other,3
Mg0.86Al0.14B2,35.1,Mg0.86 Al0.14 B2,"[Element Mg, Element Al, Element B]","{'Mg': 0.86, 'Al': 0.14, 'B': 2.0}",Other,3
Mg0.75Al0.25B2,32.4,Mg0.75 Al0.25 B2,"[Element Mg, Element Al, Element B]","{'Mg': 0.75, 'Al': 0.25, 'B': 2.0}",Other,3
Mg0.6Al0.4B2,12.2,Mg0.6 Al0.4 B2,"[Element Mg, Element Al, Element B]","{'Mg': 0.6, 'Al': 0.4, 'B': 2.0}",Other,3
Mg0.99Mn0.01B2,36.2,Mg0.99 Mn0.01 B2,"[Element Mg, Element Mn, Element B]","{'Mg': 0.99, 'Mn': 0.01, 'B': 2.0}",Other,3
Mg0.98Mn0.02B2,34.5,Mg0.98 Mn0.02 B2,"[Element Mg, Element Mn, Element B]","{'Mg': 0.98, 'Mn': 0.02, 'B': 2.0}",Other,3
Mg0.97Mn0.03B2,33.3,Mg0.97 Mn0.03 B2,"[Element Mg, Element Mn, Element B]","{'Mg': 0.97, 'Mn': 0.03, 'B': 2.0}",Other,3
Mg0.96Mn0.04B2,32.3,Mg0.96 Mn0.04 B2,"[Element Mg, Element Mn, Element B]","{'Mg': 0.96, 'Mn': 0.04, 'B': 2.0}",Other,3
Mg0.95Mn0.05B2,30.0,Mg0.95 Mn0.05 B2,"[Element Mg, Element Mn, Element B]","{'Mg': 0.95, 'Mn': 0.05, 'B': 2.0}",Other,3
B2.75Be1,0.72,B2.75 Be1,"[Element B, Element Be]","{'B': 2.75, 'Be': 1.0}",Other,2
Ca3Rh4Sn13,8.2,Ca3 Rh4 Sn13,"[Element Ca, Element Rh, Element Sn]","{'Ca': 3.0, 'Rh': 4.0, 'Sn': 13.0}",Other,3
K2Cs1C60,24.0,K2 Cs1 C60,"[Element K, Element Cs, Element C]","{'K': 2.0, 'Cs': 1.0, 'C': 60.0}",Other,3
Lu1Re1B1C1,6.1,Lu1 Re1 B1 C1,"[Element Lu, Element Re, Element B, Element C]","{'Lu': 1.0, 'Re': 1.0, 'B': 1.0, 'C': 1.0}",Other,4
Tb1Re1B1C1,4.0,Tb1 Re1 B1 C1,"[Element Tb, Element Re, Element B, Element C]","{'Tb': 1.0, 'Re': 1.0, 'B': 1.0, 'C': 1.0}",Other,4
Li2Cs1C60,12.0,Li2 Cs1 C60,"[Element Li, Element Cs, Element C]","{'Li': 2.0, 'Cs': 1.0, 'C': 60.0}",Other,3
Na2K1C60,2.5,Na2 K1 C60,"[Element Na, Element K, Element C]","{'Na': 2.0, 'K': 1.0, 'C': 60.0}",Other,3
Na2Cs0.93C60,9.6,Na2 Cs0.93 C60,"[Element Na, Element Cs, Element C]","{'Na': 2.0, 'Cs': 0.93, 'C': 60.0}",Other,3
Na2Cs0.88C60,8.3,Na2 Cs0.88 C60,"[Element Na, Element Cs, Element C]","{'Na': 2.0, 'Cs': 0.88, 'C': 60.0}",Other,3
Na2Cs0.75C60,7.0,Na2 Cs0.75 C60,"[Element Na, Element Cs, Element C]","{'Na': 2.0, 'Cs': 0.75, 'C': 60.0}",Other,3
K2.75Ba0.25C60,15.0,K2.75 Ba0.25 C60,"[Element K, Element Ba, Element C]","{'K': 2.75, 'Ba': 0.25, 'C': 60.0}",Other,3
Mg0.97Na0.03B2,38.0,Mg0.97 Na0.03 B2,"[Element Mg, Element Na, Element B]","{'Mg': 0.97, 'Na': 0.03, 'B': 2.0}",Other,3
Mg0.93Na0.07B2,38.0,Mg0.93 Na0.07 B2,"[Element Mg, Element Na, Element B]","{'Mg': 0.93, 'Na': 0.07, 'B': 2.0}",Other,3
Mg0.85Na0.15B2,38.0,Mg0.85 Na0.15 B2,"[Element Mg, Element Na, Element B]","{'Mg': 0.85, 'Na': 0.15, 'B': 2.0}",Other,3
Mg0.8Na0.2B2,38.0,Mg0.8 Na0.2 B2,"[Element Mg, Element Na, Element B]","{'Mg': 0.8, 'Na': 0.2, 'B': 2.0}",Other,3
Mg0.93Li0.07B2,37.8,Mg0.93 Li0.07 B2,"[Element Mg, Element Li, Element B]","{'Mg': 0.93, 'Li': 0.07, 'B': 2.0}",Other,3
Mg0.85Li0.15B2,37.5,Mg0.85 Li0.15 B2,"[Element Mg, Element Li, Element B]","{'Mg': 0.85, 'Li': 0.15, 'B': 2.0}",Other,3
Mg0.8Li0.2B2,34.0,Mg0.8 Li0.2 B2,"[Element Mg, Element Li, Element B]","{'Mg': 0.8, 'Li': 0.2, 'B': 2.0}",Other,3
Mg0.75Li0.25B2,33.7,Mg0.75 Li0.25 B2,"[Element Mg, Element Li, Element B]","{'Mg': 0.75, 'Li': 0.25, 'B': 2.0}",Other,3
Sc1Ni2B2C1,16.0,Sc1 Ni2 B2 C1,"[Element Sc, Element Ni, Element B, Element C]","{'Sc': 1.0, 'Ni': 2.0, 'B': 2.0, 'C': 1.0}",Other,4
Na3.5N0.5C60,14.7,Na3.5 N0.5 C60,"[Element Na, Element N, Element C]","{'Na': 3.5, 'N': 0.5, 'C': 60.0}",Other,3
Cs1.2Tl2.4C60,29.5,Cs1.2 Tl2.4 C60,"[Element Cs, Element Tl, Element C]","{'Cs': 1.2, 'Tl': 2.4, 'C': 60.0}",Other,3
Cs3Hg3.3C60,29.0,Cs3 Hg3.3 C60,"[Element Cs, Element Hg, Element C]","{'Cs': 3.0, 'Hg': 3.3, 'C': 60.0}",Other,3
Ba4Na2Ge25,0.84,Ba4 Na2 Ge25,"[Element Ba, Element Na, Element Ge]","{'Ba': 4.0, 'Na': 2.0, 'Ge': 25.0}",Other,3
Mg0.99Ti0.01B2,38.6,Mg0.99 Ti0.01 B2,"[Element Mg, Element Ti, Element B]","{'Mg': 0.99, 'Ti': 0.01, 'B': 2.0}",Other,3
Mg0.95Ti0.05B2,38.5,Mg0.95 Ti0.05 B2,"[Element Mg, Element Ti, Element B]","{'Mg': 0.95, 'Ti': 0.05, 'B': 2.0}",Other,3
Mg0.9Ti0.1B2,38.3,Mg0.9 Ti0.1 B2,"[Element Mg, Element Ti, Element B]","{'Mg': 0.9, 'Ti': 0.1, 'B': 2.0}",Other,3
Mg0.8Ti0.2B2,37.8,Mg0.8 Ti0.2 B2,"[Element Mg, Element Ti, Element B]","{'Mg': 0.8, 'Ti': 0.2, 'B': 2.0}",Other,3
Mg0.6Ti0.4B2,37.5,Mg0.6 Ti0.4 B2,"[Element Mg, Element Ti, Element B]","{'Mg': 0.6, 'Ti': 0.4, 'B': 2.0}",Other,3
Mg0.4Ti0.6B2,37.6,Mg0.4 Ti0.6 B2,"[Element Mg, Element Ti, Element B]","{'Mg': 0.4, 'Ti': 0.6, 'B': 2.0}",Other,3
H1Br3C61,115.0,H1 Br3 C61,"[Element H, Element Br, Element C]","{'H': 1.0, 'Br': 3.0, 'C': 61.0}",Hydrides,3
H1Cl3C61,80.0,H1 Cl3 C61,"[Element H, Element Cl, Element C]","{'H': 1.0, 'Cl': 3.0, 'C': 61.0}",Hydrides,3
La1Os4As12,3.2,La1 Os4 As12,"[Element La, Element Os, Element As]","{'La': 1.0, 'Os': 4.0, 'As': 12.0}",Other,3
Mo8P5,5.8,Mo8 P5,"[Element Mo, Element P]","{'Mo': 8.0, 'P': 5.0}",Other,2
Ti1Rh1Si1,5.1,Ti1 Rh1 Si1,"[Element Ti, Element Rh, Element Si]","{'Ti': 1.0, 'Rh': 1.0, 'Si': 1.0}",Other,3