chemical_formula,Tc,composition,elements,stoichiometry,Category,num_elements
Ir0.85W0.15,0.41,Ir0.85 W0.15,"[Element Ir, Element W]","{'Ir': 0.85, 'W': 0.15}",Other,2
Ir0.99V0.01,0.11,Ir0.99 V0.01,"[Element Ir, Element V]","{'Ir': 0.99, 'V': 0.01}",Other,2
Ir0.98V0.02,0.115,Ir0.98 V0.02,"[Element Ir, Element V]","{'Ir': 0.98, 'V': 0.02}",Other,2
Ir0.965V0.035,0.147,Ir0.965 V0.035,"[Element Ir, Element V]","{'Ir': 0.965, 'V': 0.035}",Other,2
Ir0.85V0.15,0.26,Ir0.85 V0.15,"[Element Ir, Element V]","{'Ir': 0.85, 'V': 0.15}",Other,2
Ir0.99Nb0.01,0.102,Ir0.99 Nb0.01,"[Element Ir, Element Nb]","{'Ir': 0.99, 'Nb': 0.01}",Other,2
Ir0.98Nb0.02,0.115,Ir0.98 Nb0.02,"[Element Ir, Element Nb]","{'Ir': 0.98, 'Nb': 0.02}",Other,2
Ir0.965Nb0.035,0.138,Ir0.965 Nb0.035,"[Element Ir, Element Nb]","{'Ir': 0.965, 'Nb': 0.035}",Other,2
Ir0.925Nb0.075,0.172,Ir0.925 Nb0.075,"[Element Ir, Element Nb]","{'Ir': 0.925, 'Nb': 0.075}",Other,2
Ir0.9Nb0.1,0.06,Ir0.9 Nb0.1,"[Element Ir, Element Nb]","{'Ir': 0.9, 'Nb': 0.1}",Other,2
Ir0.99Ta0.01,0.116,Ir0.99 Ta0.01,"[Element Ir, Element Ta]","{'Ir': 0.99, 'Ta': 0.01}",Other,2
Ir0.97Ta0.03,0.127,Ir0.97 Ta0.03,"[Element Ir, Element Ta]","{'Ir': 0.97, 'Ta': 0.03}",Other,2
Ir0.94Ta0.06,0.15,Ir0.94 Ta0.06,"[Element Ir, Element Ta]","{'Ir': 0.94, 'Ta': 0.06}",Other,2
Ir0.925Ta0.075,0.125,Ir0.925 Ta0.075,"[Element Ir, Element Ta]","{'Ir': 0.925, 'Ta': 0.075}",Other,2
Ir0.9Ta0.1,0.067,Ir0.9 Ta0.1,"[Element Ir, Element Ta]","{'Ir': 0.9, 'Ta': 0.1}",Other,2
Ir0.925Ru0.075,0.11,Ir0.925 Ru0.075,"[Element Ir, Element Ru]","{'Ir': 0.925, 'Ru': 0.075}",Other,2
Ir0.89Ru0.11,0.105,Ir0.89 Ru0.11,"[Element Ir, Element Ru]","{'Ir': 0.89, 'Ru': 0.11}",Other,2
Ir0.845Ru0.155,0.11,Ir0.845 Ru0.155,"[Element Ir, Element Ru]","{'Ir': 0.845, 'Ru': 0.155}",Other,2
Ir0.8Ru0.2,0.13,Ir0.8 Ru0.2,"[Element Ir, Element Ru]","{'Ir': 0.8, 'Ru': 0.2}",Other,2
Ir0.765Ru0.235,0.142,Ir0.765 Ru0.235,"[Element Ir, Element Ru]","{'Ir': 0.765, 'Ru': 0.235}",Other,2
Ir0.71Ru0.29,0.18,Ir0.71 Ru0.29,"[Element Ir, Element Ru]","{'Ir': 0.71, 'Ru': 0.29}",Other,2
Ir0.95Rh0.05,0.075,Ir0.95 Rh0.05,"[Element Ir, Element Rh]","{'Ir': 0.95, 'Rh': 0.05}",Other,2
Ir0.89Rh0.11,0.06,Ir0.89 Rh0.11,"[Element Ir, Element Rh]","{'Ir': 0.89, 'Rh': 0.11}",Other,2
Ir0.815Rh0.185,0.028,Ir0.815 Rh0.185,"[Element Ir, Element Rh]","{'Ir': 0.815, 'Rh': 0.185}",Other,2
Ir0.8Rh0.2,0.03,Ir0.8 Rh0.2,"[Element Ir, Element Rh]","{'Ir': 0.8, 'Rh': 0.2}",Other,2
Ir0.75Rh0.25,0.026,Ir0.75 Rh0.25,"[Element Ir, Element Rh]","{'Ir': 0.75, 'Rh': 0.25}",Other,2
Ir0.72Re0.18Rh0.1,0.6,Ir0.72 Re0.18 Rh0.1,"[Element Ir, Element Re, Element Rh]","{'Ir': 0.72, 'Re': 0.18, 'Rh': 0.1}",Other,3
Ir0.64Re0.16Rh0.2,0.55,Ir0.64 Re0.16 Rh0.2,"[Element Ir, Element Re, Element Rh]","{'Ir': 0.64, 'Re': 0.16, 'Rh': 0.2}",Other,3
Ir0.56Re0.14Rh0.3,0.25,Ir0.56 Re0.14 Rh0.3,"[Element Ir, Element Re, Element Rh]","{'Ir': 0.56, 'Re': 0.14, 'Rh': 0.3}",Other,3
Ir0.46Re0.115Rh0.425,0.13,Ir0.46 Re0.115 Rh0.425,"[Element Ir, Element Re, Element Rh]","{'Ir': 0.46, 'Re': 0.115, 'Rh': 0.425}",Other,3
Ir0.4Re0.1Rh0.5,0.08,Ir0.4 Re0.1 Rh0.5,"[Element Ir, Element Re, Element Rh]","{'Ir': 0.4, 'Re': 0.1, 'Rh': 0.5}",Other,3
Ir0.63Os0.27Rh0.1,0.4,Ir0.63 Os0.27 Rh0.1,"[Element Ir, Element Os, Element Rh]","{'Ir': 0.63, 'Os': 0.27, 'Rh': 0.1}",Other,3
Ir0.56Os0.24Rh0.2,0.28,Ir0.56 Os0.24 Rh0.2,"[Element Ir, Element Os, Element Rh]","{'Ir': 0.56, 'Os': 0.24, 'Rh': 0.2}",Other,3
Ir0.49Os0.21Rh0.3,0.27,Ir0.49 Os0.21 Rh0.3,"[Element Ir, Element Os, Element Rh]","{'Ir': 0.49, 'Os': 0.21, 'Rh': 0.3}",Other,3
Ir0.406Os0.174Rh0.42,0.095,Ir0.406 Os0.174 Rh0.42,"[Element Ir, Element Os, Element Rh]","{'Ir': 0.406, 'Os': 0.174, 'Rh': 0.42}",Other,3
Ir0.07Rh0.07Os0.86,0.064,Ir0.07 Rh0.07 Os0.86,"[Element Ir, Element Rh, Element Os]","{'Ir': 0.07, 'Rh': 0.07, 'Os': 0.86}",Other,3
Ir0.0875Rh0.0875Os0.825,0.095,Ir0.0875 Rh0.0875 Os0.825,"[Element Ir, Element Rh, Element Os]","{'Ir': 0.0875, 'Rh': 0.0875, 'Os': 0.825}",Other,3
Ir0.1Rh0.1Os0.8,0.14,Ir0.1 Rh0.1 Os0.8,"[Element Ir, Element Rh, Element Os]","{'Ir': 0.1, 'Rh': 0.1, 'Os': 0.8}",Other,3
Ir0.135Rh0.135Os0.73,0.22,Ir0.135 Rh0.135 Os0.73,"[Element Ir, Element Rh, Element Os]","{'Ir': 0.135, 'Rh': 0.135, 'Os': 0.73}",Other,3
Ir0.165Rh0.165Os0.67,0.35,Ir0.165 Rh0.165 Os0.67,"[Element Ir, Element Rh, Element Os]","{'Ir': 0.165, 'Rh': 0.165, 'Os': 0.67}",Other,3
Ir0.125Os0.2Rh0.675,0.05,Ir0.125 Os0.2 Rh0.675,"[Element Ir, Element Os, Element Rh]","{'Ir': 0.125, 'Os': 0.2, 'Rh': 0.675}",Other,3
Ir0.54Os0.1Rh0.36,0.038,Ir0.54 Os0.1 Rh0.36,"[Element Ir, Element Os, Element Rh]","{'Ir': 0.54, 'Os': 0.1, 'Rh': 0.36}",Other,3
Ir0.1Os0.25Rh0.65,0.1,Ir0.1 Os0.25 Rh0.65,"[Element Ir, Element Os, Element Rh]","{'Ir': 0.1, 'Os': 0.25, 'Rh': 0.65}",Other,3
Ir0.6Os0.1Rh0.3,0.55,Ir0.6 Os0.1 Rh0.3,"[Element Ir, Element Os, Element Rh]","{'Ir': 0.6, 'Os': 0.1, 'Rh': 0.3}",Other,3
Ir0.1Os0.3Rh0.6,0.21,Ir0.1 Os0.3 Rh0.6,"[Element Ir, Element Os, Element Rh]","{'Ir': 0.1, 'Os': 0.3, 'Rh': 0.6}",Other,3
Ir0.55Os0.15Rh0.3,0.095,Ir0.55 Os0.15 Rh0.3,"[Element Ir, Element Os, Element Rh]","{'Ir': 0.55, 'Os': 0.15, 'Rh': 0.3}",Other,3
Ir0.765Os0.085Rh0.15,0.096,Ir0.765 Os0.085 Rh0.15,"[Element Ir, Element Os, Element Rh]","{'Ir': 0.765, 'Os': 0.085, 'Rh': 0.15}",Other,3
Ir0.6Os0.2Rh0.2,0.22,Ir0.6 Os0.2 Rh0.2,"[Element Ir, Element Os, Element Rh]","{'Ir': 0.6, 'Os': 0.2, 'Rh': 0.2}",Other,3
Ir0.725Os0.175Rh0.1,0.16,Ir0.725 Os0.175 Rh0.1,"[Element Ir, Element Os, Element Rh]","{'Ir': 0.725, 'Os': 0.175, 'Rh': 0.1}",Other,3
Ir0.125Os0.375Rh0.5,0.46,Ir0.125 Os0.375 Rh0.5,"[Element Ir, Element Os, Element Rh]","{'Ir': 0.125, 'Os': 0.375, 'Rh': 0.5}",Other,3
Ir0.4Os0.3Rh0.3,0.37,Ir0.4 Os0.3 Rh0.3,"[Element Ir, Element Os, Element Rh]","{'Ir': 0.4, 'Os': 0.3, 'Rh': 0.3}",Other,3
Ir0.2Ru0.3Rh0.5,0.055,Ir0.2 Ru0.3 Rh0.5,"[Element Ir, Element Ru, Element Rh]","{'Ir': 0.2, 'Ru': 0.3, 'Rh': 0.5}",Other,3
Ir0.7Ru0.25Rh0.5,0.033,Ir0.7 Ru0.25 Rh0.5,"[Element Ir, Element Ru, Element Rh]","{'Ir': 0.7, 'Ru': 0.25, 'Rh': 0.5}",Other,3
Ir0.7Ru0.1Rh0.2,0.05,Ir0.7 Ru0.1 Rh0.2,"[Element Ir, Element Ru, Element Rh]","{'Ir': 0.7, 'Ru': 0.1, 'Rh': 0.2}",Other,3
Ir0.8Ru0.05Rh0.15,0.064,Ir0.8 Ru0.05 Rh0.15,"[Element Ir, Element Ru, Element Rh]","{'Ir': 0.8, 'Ru': 0.05, 'Rh': 0.15}",Other,3
Ir0.3Ru0.2Rh0.5,0.02,Ir0.3 Ru0.2 Rh0.5,"[Element Ir, Element Ru, Element Rh]","{'Ir': 0.3, 'Ru': 0.2, 'Rh': 0.5}",Other,3
Mo0.45Re0.55,6.47,Mo0.45 Re0.55,"[Element Mo, Element Re]","{'Mo': 0.45, 'Re': 0.55}",Other,2
Mo0.4Re0.6,6.49,Mo0.4 Re0.6,"[Element Mo, Element Re]","{'Mo': 0.4, 'Re': 0.6}",Other,2
Mo0.35Re0.65,5.6,Mo0.35 Re0.65,"[Element Mo, Element Re]","{'Mo': 0.35, 'Re': 0.65}",Other,2
Ir0.375Nb0.625,7.9,Ir0.375 Nb0.625,"[Element Ir, Element Nb]","{'Ir': 0.375, 'Nb': 0.625}",Other,2
Ir0.385Nb0.615,9.7,Ir0.385 Nb0.615,"[Element Ir, Element Nb]","{'Ir': 0.385, 'Nb': 0.615}",Other,2
Ir0.41Nb0.59,9.8,Ir0.41 Nb0.59,"[Element Ir, Element Nb]","{'Ir': 0.41, 'Nb': 0.59}",Other,2
Mo0.38Re0.62,5.7,Mo0.38 Re0.62,"[Element Mo, Element Re]","{'Mo': 0.38, 'Re': 0.62}",Other,2
Mo0.0006Re0.9994,1.697,Mo0.0006 Re0.9994,"[Element Mo, Element Re]","{'Mo': 0.0006, 'Re': 0.9994}",Other,2
Re0.994W0.006,1.84,Re0.994 W0.006,"[Element Re, Element W]","{'Re': 0.994, 'W': 0.006}",Other,2
Re0.976W0.024,3.0,Re0.976 W0.024,"[Element Re, Element W]","{'Re': 0.976, 'W': 0.024}",Other,2
Re0.98Rh0.02,2.014,Re0.98 Rh0.02,"[Element Re, Element Rh]","{'Re': 0.98, 'Rh': 0.02}",Other,2
Re0.9865Ru0.0135,1.937,Re0.9865 Ru0.0135,"[Element Re, Element Ru]","{'Re': 0.9865, 'Ru': 0.0135}",Other,2
Ir0.02Re0.98,1.968,Ir0.02 Re0.98,"[Element Ir, Element Re]","{'Ir': 0.02, 'Re': 0.98}",Other,2
Os0.02Re0.98,1.807,Os0.02 Re0.98,"[Element Os, Element Re]","{'Os': 0.02, 'Re': 0.98}",Other,2
Os0.115Re0.885,1.79,Os0.115 Re0.885,"[Element Os, Element Re]","{'Os': 0.115, 'Re': 0.885}",Other,2
Os0.232Re0.768,1.67,Os0.232 Re0.768,"[Element Os, Element Re]","{'Os': 0.232, 'Re': 0.768}",Other,2
Os0.3Re0.7,1.54,Os0.3 Re0.7,"[Element Os, Element Re]","{'Os': 0.3, 'Re': 0.7}",Other,2
Os0.362Re0.638,1.35,Os0.362 Re0.638,"[Element Os, Element Re]","{'Os': 0.362, 'Re': 0.638}",Other,2
Os0.432Re0.568,1.18,Os0.432 Re0.568,"[Element Os, Element Re]","{'Os': 0.432, 'Re': 0.568}",Other,2
Os0.56Re0.44,0.94,Os0.56 Re0.44,"[Element Os, Element Re]","{'Os': 0.56, 'Re': 0.44}",Other,2
Os0.7Re0.3,0.8,Os0.7 Re0.3,"[Element Os, Element Re]","{'Os': 0.7, 'Re': 0.3}",Other,2
Os0.81Re0.19,0.73,Os0.81 Re0.19,"[Element Os, Element Re]","{'Os': 0.81, 'Re': 0.19}",Other,2
Os0.89Re0.11,0.7,Os0.89 Re0.11,"[Element Os, Element Re]","{'Os': 0.89, 'Re': 0.11}",Other,2
Os0.333Ru0.667,0.47,Os0.333 Ru0.667,"[Element Os, Element Ru]","{'Os': 0.333, 'Ru': 0.667}",Other,2
Os0.666Ru0.334,0.569,Os0.666 Ru0.334,"[Element Os, Element Ru]","{'Os': 0.666, 'Ru': 0.334}",Other,2
Os0.9Ru0.1,0.584,Os0.9 Ru0.1,"[Element Os, Element Ru]","{'Os': 0.9, 'Ru': 0.1}",Other,2
La2.916Pr0.084Tl1,7.7,La2.916 Pr0.084 Tl1,"[Element La, Element Pr, Element Tl]","{'La': 2.916, 'Pr': 0.084, 'Tl': 1.0}",Other,3
La2.91Pr0.09Tl1,7.55,La2.91 Pr0.09 Tl1,"[Element La, Element Pr, Element Tl]","{'La': 2.91, 'Pr': 0.09, 'Tl': 1.0}",Other,3
La2.92Pr0.18Tl1,6.51,La2.92 Pr0.18 Tl1,"[Element La, Element Pr, Element Tl]","{'La': 2.92, 'Pr': 0.18, 'Tl': 1.0}",Other,3
La2.706Pr0.294Tl1,5.25,La2.706 Pr0.294 Tl1,"[Element La, Element Pr, Element Tl]","{'La': 2.706, 'Pr': 0.294, 'Tl': 1.0}",Other,3
La2.574Pr0.426Tl1,3.92,La2.574 Pr0.426 Tl1,"[Element La, Element Pr, Element Tl]","{'La': 2.574, 'Pr': 0.426, 'Tl': 1.0}",Other,3
La2.55Pr0.45Tl1,3.68,La2.55 Pr0.45 Tl1,"[Element La, Element Pr, Element Tl]","{'La': 2.55, 'Pr': 0.45, 'Tl': 1.0}",Other,3
La2.406Pr0.594Tl1,2.4,La2.406 Pr0.594 Tl1,"[Element La, Element Pr, Element Tl]","{'La': 2.406, 'Pr': 0.594, 'Tl': 1.0}",Other,3
La2.25Pr0.75Tl1,1.24,La2.25 Pr0.75 Tl1,"[Element La, Element Pr, Element Tl]","{'La': 2.25, 'Pr': 0.75, 'Tl': 1.0}",Other,3
La0.95Pr0.05Se1,0.7,La0.95 Pr0.05 Se1,"[Element La, Element Pr, Element Se]","{'La': 0.95, 'Pr': 0.05, 'Se': 1.0}",Other,3
La0.9Pr0.1Se1,0.48,La0.9 Pr0.1 Se1,"[Element La, Element Pr, Element Se]","{'La': 0.9, 'Pr': 0.1, 'Se': 1.0}",Other,3
La0.8Pr0.2Se1,0.03,La0.8 Pr0.2 Se1,"[Element La, Element Pr, Element Se]","{'La': 0.8, 'Pr': 0.2, 'Se': 1.0}",Other,3
La2.85Pr0.15Se4,4.81,La2.85 Pr0.15 Se4,"[Element La, Element Pr, Element Se]","{'La': 2.85, 'Pr': 0.15, 'Se': 4.0}",Other,3
La2.7Pr0.3Se4,3.36,La2.7 Pr0.3 Se4,"[Element La, Element Pr, Element Se]","{'La': 2.7, 'Pr': 0.3, 'Se': 4.0}",Other,3
La2.4Pr0.6Se4,1.49,La2.4 Pr0.6 Se4,"[Element La, Element Pr, Element Se]","{'La': 2.4, 'Pr': 0.6, 'Se': 4.0}",Other,3
La2.25Pr0.75Se4,0.76,La2.25 Pr0.75 Se4,"[Element La, Element Pr, Element Se]","{'La': 2.25, 'Pr': 0.75, 'Se': 4.0}",Other,3
La2.82Pr0.18S4,4.33,La2.82 Pr0.18 S4,"[Element La, Element Pr, Element S]","{'La': 2.82, 'Pr': 0.18, 'S': 4.0}",Other,3
La2.58Pr0.42S4,2.69,La2.58 Pr0.42 S4,"[Element La, Element Pr, Element S]","{'La': 2.58, 'Pr': 0.42, 'S': 4.0}",Other,3
Pr1Ru4P12,1.8,Pr1 Ru4 P12,"[Element Pr, Element Ru, Element P]","{'Pr': 1.0, 'Ru': 4.0, 'P': 12.0}",Other,3
Mg0.98Sc0.02B2,39.0,Mg0.98 Sc0.02 B2,"[Element Mg, Element Sc, Element B]","{'Mg': 0.98, 'Sc': 0.02, 'B': 2.0}",Other,3
Mg0.88Sc0.12B2,30.0,Mg0.88 Sc0.12 B2,"[Element Mg, Element Sc, Element B]","{'Mg': 0.88, 'Sc': 0.12, 'B': 2.0}",Other,3
Mg0.73Sc0.27B2,6.0,Mg0.73 Sc0.27 B2,"[Element Mg, Element Sc, Element B]","{'Mg': 0.73, 'Sc': 0.27, 'B': 2.0}",Other,3
Mg1C1Ni2.7Ru0.3,2.8,Mg1 C1 Ni2.7 Ru0.3,"[Element Mg, Element C, Element Ni, Element Ru]","{'Mg': 1.0, 'C': 1.0, 'Ni': 2.7, 'Ru': 0.3}",Other,4
Mg1C1Ni2.6Ru0.4,2.14,Mg1 C1 Ni2.6 Ru0.4,"[Element Mg, Element C, Element Ni, Element Ru]","{'Mg': 1.0, 'C': 1.0, 'Ni': 2.6, 'Ru': 0.4}",Other,4
Th0.9La0.1Ru2,4.73,Th0.9 La0.1 Ru2,"[Element Th, Element La, Element Ru]","{'Th': 0.9, 'La': 0.1, 'Ru': 2.0}",Other,3
Th0.9La0.2Ru2,5.87,Th0.9 La0.2 Ru2,"[Element Th, Element La, Element Ru]","{'Th': 0.9, 'La': 0.2, 'Ru': 2.0}",Other,3
Th0.9La0.3Ru2,4.45,Th0.9 La0.3 Ru2,"[Element Th, Element La, Element Ru]","{'Th': 0.9, 'La': 0.3, 'Ru': 2.0}",Other,3
Th0.9La0.9Ru2,3.05,Th0.9 La0.9 Ru2,"[Element Th, Element La, Element Ru]","{'Th': 0.9, 'La': 0.9, 'Ru': 2.0}",Other,3
Er1Ni1.98Fe0.02B2C1,8.8,Er1 Ni1.98 Fe0.02 B2 C1,"[Element Er, Element Ni, Element Fe, Element B, Element C]","{'Er': 1.0, 'Ni': 1.98, 'Fe': 0.02, 'B': 2.0, 'C': 1.0}",Fe-based,5
Er1Ni1.965Fe0.035B2C1,7.31,Er1 Ni1.965 Fe0.035 B2 C1,"[Element Er, Element Ni, Element Fe, Element B, Element C]","{'Er': 1.0, 'Ni': 1.965, 'Fe': 0.035, 'B': 2.0, 'C': 1.0}",Fe-based,5
Er1Ni1.96Fe0.04B2C1,7.21,Er1 Ni1.96 Fe0.04 B2 C1,"[Element Er, Element Ni, Element Fe, Element B, Element C]","{'Er': 1.0, 'Ni': 1.96, 'Fe': 0.04, 'B': 2.0, 'C': 1.0}",Fe-based,5
Ho1Ni1.99Fe0.01B2C1,7.0,Ho1 Ni1.99 Fe0.01 B2 C1,"[Element Ho, Element Ni, Element Fe, Element B, Element C]","{'Ho': 1.0, 'Ni': 1.99, 'Fe': 0.01, 'B': 2.0, 'C': 1.0}",Fe-based,5
As2Te3,4.4,As2 Te3,"[Element As, Element Te]","{'As': 2.0, 'Te': 3.0}",Other,2
Os2.76Re97.24,1.844,Os2.76 Re97.24,"[Element Os, Element Re]","{'Os': 2.76, 'Re': 97.24}",Other,2
Os8.33Re91.67,1.876,Os8.33 Re91.67,"[Element Os, Element Re]","{'Os': 8.33, 'Re': 91.67}",Other,2
Nb99.976O0.024,9.23,Nb99.976 O0.024,"[Element Nb, Element O]","{'Nb': 99.976, 'O': 0.024}",Other,2
Nb99.861O0.139,9.03,Nb99.861 O0.139,"[Element Nb, Element O]","{'Nb': 99.861, 'O': 0.139}",Other,2
Nb99.445O0.555,8.5,Nb99.445 O0.555,"[Element Nb, Element O]","{'Nb': 99.445, 'O': 0.555}",Other,2
Nb99.078O0.922,8.1,Nb99.078 O0.922,"[Element Nb, Element O]","{'Nb': 99.078, 'O': 0.922}",Other,2
Nb98.68O1.32,7.85,Nb98.68 O1.32,"[Element Nb, Element O]","{'Nb': 98.68, 'O': 1.32}",Other,2
Nb98O2,7.33,Nb98 O2,"[Element Nb, Element O]","{'Nb': 98.0, 'O': 2.0}",Other,2
Nb96.5O3.5,6.13,Nb96.5 O3.5,"[Element Nb, Element O]","{'Nb': 96.5, 'O': 3.5}",Other,2
Nb0.36Ti0.64,9.05,Nb0.36 Ti0.64,"[Element Nb, Element Ti]","{'Nb': 0.36, 'Ti': 0.64}",Other,2
Ti0.64Nb0.34Ta0.02,8.99,Ti0.64 Nb0.34 Ta0.02,"[Element Ti, Element Nb, Element Ta]","{'Ti': 0.64, 'Nb': 0.34, 'Ta': 0.02}",Other,3
Ti0.64Nb0.32Ta0.04,8.9,Ti0.64 Nb0.32 Ta0.04,"[Element Ti, Element Nb, Element Ta]","{'Ti': 0.64, 'Nb': 0.32, 'Ta': 0.04}",Other,3
Ti0.64Nb0.28Ta0.08,8.74,Ti0.64 Nb0.28 Ta0.08,"[Element Ti, Element Nb, Element Ta]","{'Ti': 0.64, 'Nb': 0.28, 'Ta': 0.08}",Other,3
Ti0.64Nb0.26Ta0.1,8.56,Ti0.64 Nb0.26 Ta0.1,"[Element Ti, Element Nb, Element Ta]","{'Ti': 0.64, 'Nb': 0.26, 'Ta': 0.1}",Other,3
Ti0.64Nb0.24Ta0.12,8.32,Ti0.64 Nb0.24 Ta0.12,"[Element Ti, Element Nb, Element Ta]","{'Ti': 0.64, 'Nb': 0.24, 'Ta': 0.12}",Other,3
Ti0.64Nb0.18Ta0.18,8.18,Ti0.64 Nb0.18 Ta0.18,"[Element Ti, Element Nb, Element Ta]","{'Ti': 0.64, 'Nb': 0.18, 'Ta': 0.18}",Other,3
Ti0.64Nb0.1Ta0.26,7.78,Ti0.64 Nb0.1 Ta0.26,"[Element Ti, Element Nb, Element Ta]","{'Ti': 0.64, 'Nb': 0.1, 'Ta': 0.26}",Other,3
Ta0.36Ti0.64,7.53,Ta0.36 Ti0.64,"[Element Ta, Element Ti]","{'Ta': 0.36, 'Ti': 0.64}",Other,2
Nb0.995Ta0.005,9.226,Nb0.995 Ta0.005,"[Element Nb, Element Ta]","{'Nb': 0.995, 'Ta': 0.005}",Other,2
Nb0.99Ta0.01,9.079,Nb0.99 Ta0.01,"[Element Nb, Element Ta]","{'Nb': 0.99, 'Ta': 0.01}",Other,2
Ti0.415V0.585,7.49,Ti0.415 V0.585,"[Element Ti, Element V]","{'Ti': 0.415, 'V': 0.585}",Other,2
Ti0.106V0.894,6.86,Ti0.106 V0.894,"[Element Ti, Element V]","{'Ti': 0.106, 'V': 0.894}",Other,2
Nb0.016Ta0.984,4.47,Nb0.016 Ta0.984,"[Element Nb, Element Ta]","{'Nb': 0.016, 'Ta': 0.984}",Other,2
Nb0.04Ta0.96,4.47,Nb0.04 Ta0.96,"[Element Nb, Element Ta]","{'Nb': 0.04, 'Ta': 0.96}",Other,2
Nb0.08Ta0.92,4.54,Nb0.08 Ta0.92,"[Element Nb, Element Ta]","{'Nb': 0.08, 'Ta': 0.92}",Other,2
Nb0.16Ta0.84,4.67,Nb0.16 Ta0.84,"[Element Nb, Element Ta]","{'Nb': 0.16, 'Ta': 0.84}",Other,2
Nb0.037Ta0.963,4.51,Nb0.037 Ta0.963,"[Element Nb, Element Ta]","{'Nb': 0.037, 'Ta': 0.963}",Other,2
Nb0.14Ta0.86,4.76,Nb0.14 Ta0.86,"[Element Nb, Element Ta]","{'Nb': 0.14, 'Ta': 0.86}",Other,2
Nb0.405Ta0.595,5.72,Nb0.405 Ta0.595,"[Element Nb, Element Ta]","{'Nb': 0.405, 'Ta': 0.595}",Other,2
Nb0.58Ta0.42,6.54,Nb0.58 Ta0.42,"[Element Nb, Element Ta]","{'Nb': 0.58, 'Ta': 0.42}",Other,2
Nb0.15V0.85,4.3,Nb0.15 V0.85,"[Element Nb, Element V]","{'Nb': 0.15, 'V': 0.85}",Other,2
Nb0.2V0.8,4.03,Nb0.2 V0.8,"[Element Nb, Element V]","{'Nb': 0.2, 'V': 0.8}",Other,2
Nb0.5V0.5,4.25,Nb0.5 V0.5,"[Element Nb, Element V]","{'Nb': 0.5, 'V': 0.5}",Other,2
Nb0.69V0.31,4.9,Nb0.69 V0.31,"[Element Nb, Element V]","{'Nb': 0.69, 'V': 0.31}",Other,2
Nb0.8V0.2,5.76,Nb0.8 V0.2,"[Element Nb, Element V]","{'Nb': 0.8, 'V': 0.2}",Other,2
Nb0.9V0.1,6.95,Nb0.9 V0.1,"[Element Nb, Element V]","{'Nb': 0.9, 'V': 0.1}",Other,2
Ta0.1V0.9,4.47,Ta0.1 V0.9,"[Element Ta, Element V]","{'Ta': 0.1, 'V': 0.9}",Other,2
Ta0.24V0.76,3.58,Ta0.24 V0.76,"[Element Ta, Element V]","{'Ta': 0.24, 'V': 0.76}",Other,2
Ta0.7V0.3,3.0,Ta0.7 V0.3,"[Element Ta, Element V]","{'Ta': 0.7, 'V': 0.3}",Other,2
Ta0.9V0.1,3.58,Ta0.9 V0.1,"[Element Ta, Element V]","{'Ta': 0.9, 'V': 0.1}",Other,2
Nb0.7Ta0.3,6.8,Nb0.7 Ta0.3,"[Element Nb, Element Ta]","{'Nb': 0.7, 'Ta': 0.3}",Other,2
Nb0.3Ta0.7,5.15,Nb0.3 Ta0.7,"[Element Nb, Element Ta]","{'Nb': 0.3, 'Ta': 0.7}",Other,2
Nb0.15Ta0.85,4.58,Nb0.15 Ta0.85,"[Element Nb, Element Ta]","{'Nb': 0.15, 'Ta': 0.85}",Other,2
Cr0.0018V0.9982,5.15,Cr0.0018 V0.9982,"[Element Cr, Element V]","{'Cr': 0.0018, 'V': 0.9982}",Other,2
Cr0.0033V0.9967,5.07,Cr0.0033 V0.9967,"[Element Cr, Element V]","{'Cr': 0.0033, 'V': 0.9967}",Other,2
Cr0.0081V0.9919,4.78,Cr0.0081 V0.9919,"[Element Cr, Element V]","{'Cr': 0.0081, 'V': 0.9919}",Other,2
Cr0.0132V0.9868,4.57,Cr0.0132 V0.9868,"[Element Cr, Element V]","{'Cr': 0.0132, 'V': 0.9868}",Other,2
Cr0.0265V0.9735,3.89,Cr0.0265 V0.9735,"[Element Cr, Element V]","{'Cr': 0.0265, 'V': 0.9735}",Other,2
Ti0.5V0.5,6.71,Ti0.5 V0.5,"[Element Ti, Element V]","{'Ti': 0.5, 'V': 0.5}",Other,2
Ti0.1V0.9,6.03,Ti0.1 V0.9,"[Element Ti, Element V]","{'Ti': 0.1, 'V': 0.9}",Other,2
Ti0.03V0.97,5.58,Ti0.03 V0.97,"[Element Ti, Element V]","{'Ti': 0.03, 'V': 0.97}",Other,2
Ti0.01V0.99,5.42,Ti0.01 V0.99,"[Element Ti, Element V]","{'Ti': 0.01, 'V': 0.99}",Other,2
Cr0.01V0.99,4.8,Cr0.01 V0.99,"[Element Cr, Element V]","{'Cr': 0.01, 'V': 0.99}",Other,2
Cr0.02V0.98,4.08,Cr0.02 V0.98,"[Element Cr, Element V]","{'Cr': 0.02, 'V': 0.98}",Other,2
Cr0.026V0.974,3.66,Cr0.026 V0.974,"[Element Cr, Element V]","{'Cr': 0.026, 'V': 0.974}",Other,2
Cr0.055V0.945,1.89,Cr0.055 V0.945,"[Element Cr, Element V]","{'Cr': 0.055, 'V': 0.945}",Other,2
Co0.007V0.993,4.52,Co0.007 V0.993,"[Element Co, Element V]","{'Co': 0.007, 'V': 0.993}",Other,2
Co0.017V0.983,3.28,Co0.017 V0.983,"[Element Co, Element V]","{'Co': 0.017, 'V': 0.983}",Other,2
Co0.02V0.98,2.61,Co0.02 V0.98,"[Element Co, Element V]","{'Co': 0.02, 'V': 0.98}",Other,2
Co0.03V0.97,1.48,Co0.03 V0.97,"[Element Co, Element V]","{'Co': 0.03, 'V': 0.97}",Other,2
Ni0.011V0.989,3.82,Ni0.011 V0.989,"[Element Ni, Element V]","{'Ni': 0.011, 'V': 0.989}",Other,2
Ni0.02V0.98,3.29,Ni0.02 V0.98,"[Element Ni, Element V]","{'Ni': 0.02, 'V': 0.98}",Other,2
Ni0.03V0.97,2.11,Ni0.03 V0.97,"[Element Ni, Element V]","{'Ni': 0.03, 'V': 0.97}",Other,2
Nb3Sn0.8Sb0.2,16.5,Nb3 Sn0.8 Sb0.2,"[Element Nb, Element Sn, Element Sb]","{'Nb': 3.0, 'Sn': 0.8, 'Sb': 0.2}",Other,3
Nb3Sn0.7Sb0.3,15.8,Nb3 Sn0.7 Sb0.3,"[Element Nb, Element Sn, Element Sb]","{'Nb': 3.0, 'Sn': 0.7, 'Sb': 0.3}",Other,3
Nb3Sn0.5Sb0.5,14.4,Nb3 Sn0.5 Sb0.5,"[Element Nb, Element Sn, Element Sb]","{'Nb': 3.0, 'Sn': 0.5, 'Sb': 0.5}",Other,3
NbSn3,18.0,Nb1 Sn3,"[Element Nb, Element Sn]","{'Nb': 1.0, 'Sn': 3.0}",Other,2
Nb2.85Ti0.15Sn1,17.9,Nb2.85 Ti0.15 Sn1,"[Element Nb, Element Ti, Element Sn]","{'Nb': 2.85, 'Ti': 0.15, 'Sn': 1.0}",Other,3
Nb2.7Ti0.3Sn1,16.4,Nb2.7 Ti0.3 Sn1,"[Element Nb, Element Ti, Element Sn]","{'Nb': 2.7, 'Ti': 0.3, 'Sn': 1.0}",Other,3
Nb2.55Ti0.45Sn1,15.6,Nb2.55 Ti0.45 Sn1,"[Element Nb, Element Ti, Element Sn]","{'Nb': 2.55, 'Ti': 0.45, 'Sn': 1.0}",Other,3