chemical_formula,Tc,composition,elements,stoichiometry,Category,num_elements
Pb2Sr2Ho0.05Ca0.5Cu2.994Al0.006O8,76.4,Pb2 Sr2 Ho0.05 Ca0.5 Cu2.994 Al0.006 O8,"[Element Pb, Element Sr, Element Ho, Element Ca, Element Cu, Element Al, Element O]","{'Pb': 2.0, 'Sr': 2.0, 'Ho': 0.05, 'Ca': 0.5, 'Cu': 2.994, 'Al': 0.006, 'O': 8.0}",Cuprates,7
Pb2Sr2Ho0.5Ca0.5Cu2.982Al0.018O8,63.6,Pb2 Sr2 Ho0.5 Ca0.5 Cu2.982 Al0.018 O8,"[Element Pb, Element Sr, Element Ho, Element Ca, Element Cu, Element Al, Element O]","{'Pb': 2.0, 'Sr': 2.0, 'Ho': 0.5, 'Ca': 0.5, 'Cu': 2.982, 'Al': 0.018, 'O': 8.0}",Cuprates,7
Pb2Sr2Ho0.5Ca0.5Cu2.97Al0.03O8,59.1,Pb2 Sr2 Ho0.5 Ca0.5 Cu2.97 Al0.03 O8,"[Element Pb, Element Sr, Element Ho, Element Ca, Element Cu, Element Al, Element O]","{'Pb': 2.0, 'Sr': 2.0, 'Ho': 0.5, 'Ca': 0.5, 'Cu': 2.97, 'Al': 0.03, 'O': 8.0}",Cuprates,7
Pb2Sr2Ho0.5Ca0.5Cu2.94Al0.06O8,51.8,Pb2 Sr2 Ho0.5 Ca0.5 Cu2.94 Al0.06 O8,"[Element Pb, Element Sr, Element Ho, Element Ca, Element Cu, Element Al, Element O]","{'Pb': 2.0, 'Sr': 2.0, 'Ho': 0.5, 'Ca': 0.5, 'Cu': 2.94, 'Al': 0.06, 'O': 8.0}",Cuprates,7
Pb2Sr2Ho0.5Ca0.5Cu2.94Pt0.06O8,80.4,Pb2 Sr2 Ho0.5 Ca0.5 Cu2.94 Pt0.06 O8,"[Element Pb, Element Sr, Element Ho, Element Ca, Element Cu, Element Pt, Element O]","{'Pb': 2.0, 'Sr': 2.0, 'Ho': 0.5, 'Ca': 0.5, 'Cu': 2.94, 'Pt': 0.06, 'O': 8.0}",Cuprates,7
Ca1.883Cu0.941Cl1.941Na0.059O2.117,26.0,Ca1.883 Cu0.941 Cl1.941 Na0.059 O2.117,"[Element Ca, Element Cu, Element Cl, Element Na, Element O]","{'Ca': 1.883, 'Cu': 0.941, 'Cl': 1.941, 'Na': 0.059, 'O': 2.117}",Cuprates,5
Ca1.808Cu0.904Cl1.904Na0.096O2.192,26.0,Ca1.808 Cu0.904 Cl1.904 Na0.096 O2.192,"[Element Ca, Element Cu, Element Cl, Element Na, Element O]","{'Ca': 1.808, 'Cu': 0.904, 'Cl': 1.904, 'Na': 0.096, 'O': 2.192}",Cuprates,5
Ca1.737Cu0.868Cl1.868Na0.132O2.263,21.0,Ca1.737 Cu0.868 Cl1.868 Na0.132 O2.263,"[Element Ca, Element Cu, Element Cl, Element Na, Element O]","{'Ca': 1.737, 'Cu': 0.868, 'Cl': 1.868, 'Na': 0.132, 'O': 2.263}",Cuprates,5
Ca1.702Cu0.851Cl1.851Na0.149O2.404,15.0,Ca1.702 Cu0.851 Cl1.851 Na0.149 O2.404,"[Element Ca, Element Cu, Element Cl, Element Na, Element O]","{'Ca': 1.702, 'Cu': 0.851, 'Cl': 1.851, 'Na': 0.149, 'O': 2.404}",Cuprates,5
Hg1Ba2Cu1O4.1,35.0,Hg1 Ba2 Cu1 O4.1,"[Element Hg, Element Ba, Element Cu, Element O]","{'Hg': 1.0, 'Ba': 2.0, 'Cu': 1.0, 'O': 4.1}",Cuprates,4
Hg1Ba2Cu1O4.09,36.0,Hg1 Ba2 Cu1 O4.09,"[Element Hg, Element Ba, Element Cu, Element O]","{'Hg': 1.0, 'Ba': 2.0, 'Cu': 1.0, 'O': 4.09}",Cuprates,4
Hg1Ba2Cu1O4.07,91.0,Hg1 Ba2 Cu1 O4.07,"[Element Hg, Element Ba, Element Cu, Element O]","{'Hg': 1.0, 'Ba': 2.0, 'Cu': 1.0, 'O': 4.07}",Cuprates,4
Hg1Ba2Cu1O4.117,82.0,Hg1 Ba2 Cu1 O4.117,"[Element Hg, Element Ba, Element Cu, Element O]","{'Hg': 1.0, 'Ba': 2.0, 'Cu': 1.0, 'O': 4.117}",Cuprates,4
Hg1Ba2Cu1O4.043,87.0,Hg1 Ba2 Cu1 O4.043,"[Element Hg, Element Ba, Element Cu, Element O]","{'Hg': 1.0, 'Ba': 2.0, 'Cu': 1.0, 'O': 4.043}",Cuprates,4
Er1Ba2Cu3O6.92,90.0,Er1 Ba2 Cu3 O6.92,"[Element Er, Element Ba, Element Cu, Element O]","{'Er': 1.0, 'Ba': 2.0, 'Cu': 3.0, 'O': 6.92}",Cuprates,4
Hg0.8V0.2Ba2Cu1O4.3,90.0,Hg0.8 V0.2 Ba2 Cu1 O4.3,"[Element Hg, Element V, Element Ba, Element Cu, Element O]","{'Hg': 0.8, 'V': 0.2, 'Ba': 2.0, 'Cu': 1.0, 'O': 4.3}",Cuprates,5
Hg0.8V0.2Ba2Ca1Cu2O6.3,115.0,Hg0.8 V0.2 Ba2 Ca1 Cu2 O6.3,"[Element Hg, Element V, Element Ba, Element Ca, Element Cu, Element O]","{'Hg': 0.8, 'V': 0.2, 'Ba': 2.0, 'Ca': 1.0, 'Cu': 2.0, 'O': 6.3}",Cuprates,6
Ba6C60,7.0,Ba6 C60,"[Element Ba, Element C]","{'Ba': 6.0, 'C': 60.0}",Other,2
Hg0.9W0.1Ba2Cu1O4.2,89.0,Hg0.9 W0.1 Ba2 Cu1 O4.2,"[Element Hg, Element W, Element Ba, Element Cu, Element O]","{'Hg': 0.9, 'W': 0.1, 'Ba': 2.0, 'Cu': 1.0, 'O': 4.2}",Cuprates,5
Hg0.6Cr0.4Ba2Cu1O4.1,70.0,Hg0.6 Cr0.4 Ba2 Cu1 O4.1,"[Element Hg, Element Cr, Element Ba, Element Cu, Element O]","{'Hg': 0.6, 'Cr': 0.4, 'Ba': 2.0, 'Cu': 1.0, 'O': 4.1}",Cuprates,5
Hg0.8Mo0.2Ba2Cu1O4.4,74.0,Hg0.8 Mo0.2 Ba2 Cu1 O4.4,"[Element Hg, Element Mo, Element Ba, Element Cu, Element O]","{'Hg': 0.8, 'Mo': 0.2, 'Ba': 2.0, 'Cu': 1.0, 'O': 4.4}",Cuprates,5
Hg0.9Mo0.1Ba2Cu1O4.2,75.0,Hg0.9 Mo0.1 Ba2 Cu1 O4.2,"[Element Hg, Element Mo, Element Ba, Element Cu, Element O]","{'Hg': 0.9, 'Mo': 0.1, 'Ba': 2.0, 'Cu': 1.0, 'O': 4.2}",Cuprates,5
Hg0.8W0.2Ba2Cu1O4.4,45.0,Hg0.8 W0.2 Ba2 Cu1 O4.4,"[Element Hg, Element W, Element Ba, Element Cu, Element O]","{'Hg': 0.8, 'W': 0.2, 'Ba': 2.0, 'Cu': 1.0, 'O': 4.4}",Cuprates,5
Hg0.8Mo0.2Ba2Ca1Cu2O6.4,127.0,Hg0.8 Mo0.2 Ba2 Ca1 Cu2 O6.4,"[Element Hg, Element Mo, Element Ba, Element Ca, Element Cu, Element O]","{'Hg': 0.8, 'Mo': 0.2, 'Ba': 2.0, 'Ca': 1.0, 'Cu': 2.0, 'O': 6.4}",Cuprates,6
Hg0.8W0.2Ba2Ca1Cu2O6.4,118.0,Hg0.8 W0.2 Ba2 Ca1 Cu2 O6.4,"[Element Hg, Element W, Element Ba, Element Ca, Element Cu, Element O]","{'Hg': 0.8, 'W': 0.2, 'Ba': 2.0, 'Ca': 1.0, 'Cu': 2.0, 'O': 6.4}",Cuprates,6
Hg0.9W0.1Ba2Ca1Cu2O6.2,118.0,Hg0.9 W0.1 Ba2 Ca1 Cu2 O6.2,"[Element Hg, Element W, Element Ba, Element Ca, Element Cu, Element O]","{'Hg': 0.9, 'W': 0.1, 'Ba': 2.0, 'Ca': 1.0, 'Cu': 2.0, 'O': 6.2}",Cuprates,6
Hg0.8Ti0.2Ba2Ca1Cu2O6.2,127.0,Hg0.8 Ti0.2 Ba2 Ca1 Cu2 O6.2,"[Element Hg, Element Ti, Element Ba, Element Ca, Element Cu, Element O]","{'Hg': 0.8, 'Ti': 0.2, 'Ba': 2.0, 'Ca': 1.0, 'Cu': 2.0, 'O': 6.2}",Cuprates,6
Hg0.8Cr0.2Ba2Ca1Cu2O6.1,110.0,Hg0.8 Cr0.2 Ba2 Ca1 Cu2 O6.1,"[Element Hg, Element Cr, Element Ba, Element Ca, Element Cu, Element O]","{'Hg': 0.8, 'Cr': 0.2, 'Ba': 2.0, 'Ca': 1.0, 'Cu': 2.0, 'O': 6.1}",Cuprates,6
Hg0.8V0.2Ba2Ca2Cu3O8.3,120.0,Hg0.8 V0.2 Ba2 Ca2 Cu3 O8.3,"[Element Hg, Element V, Element Ba, Element Ca, Element Cu, Element O]","{'Hg': 0.8, 'V': 0.2, 'Ba': 2.0, 'Ca': 2.0, 'Cu': 3.0, 'O': 8.3}",Cuprates,6
Hg0.8Mo0.2Ba2Ca2Cu3O8.4,129.0,Hg0.8 Mo0.2 Ba2 Ca2 Cu3 O8.4,"[Element Hg, Element Mo, Element Ba, Element Ca, Element Cu, Element O]","{'Hg': 0.8, 'Mo': 0.2, 'Ba': 2.0, 'Ca': 2.0, 'Cu': 3.0, 'O': 8.4}",Cuprates,6
Hg0.6Ti0.4Ba2Ca2Cu3O8.4,128.0,Hg0.6 Ti0.4 Ba2 Ca2 Cu3 O8.4,"[Element Hg, Element Ti, Element Ba, Element Ca, Element Cu, Element O]","{'Hg': 0.6, 'Ti': 0.4, 'Ba': 2.0, 'Ca': 2.0, 'Cu': 3.0, 'O': 8.4}",Cuprates,6
Hg0.8Cr0.2Ba2Ca2Cu3O8.1,95.0,Hg0.8 Cr0.2 Ba2 Ca2 Cu3 O8.1,"[Element Hg, Element Cr, Element Ba, Element Ca, Element Cu, Element O]","{'Hg': 0.8, 'Cr': 0.2, 'Ba': 2.0, 'Ca': 2.0, 'Cu': 3.0, 'O': 8.1}",Cuprates,6
Hg0.9Ba2Cu1O4,73.0,Hg0.9 Ba2 Cu1 O4,"[Element Hg, Element Ba, Element Cu, Element O]","{'Hg': 0.9, 'Ba': 2.0, 'Cu': 1.0, 'O': 4.0}",Cuprates,4
Hg0.8Bi0.2Ba2Cu1O4.2,85.0,Hg0.8 Bi0.2 Ba2 Cu1 O4.2,"[Element Hg, Element Bi, Element Ba, Element Cu, Element O]","{'Hg': 0.8, 'Bi': 0.2, 'Ba': 2.0, 'Cu': 1.0, 'O': 4.2}",Cuprates,5
Hg0.8Bi0.2Ba2Ca2Cu3O8.2,130.0,Hg0.8 Bi0.2 Ba2 Ca2 Cu3 O8.2,"[Element Hg, Element Bi, Element Ba, Element Ca, Element Cu, Element O]","{'Hg': 0.8, 'Bi': 0.2, 'Ba': 2.0, 'Ca': 2.0, 'Cu': 3.0, 'O': 8.2}",Cuprates,6
Hg0.75Mo0.05Sr2Ca2Cu3O,106.0,Hg0.75 Mo0.05 Sr2 Ca2 Cu3 O1,"[Element Hg, Element Mo, Element Sr, Element Ca, Element Cu, Element O]","{'Hg': 0.75, 'Mo': 0.05, 'Sr': 2.0, 'Ca': 2.0, 'Cu': 3.0, 'O': 1.0}",Cuprates,6
Sr2Cu1F2O2,47.0,Sr2 Cu1 F2 O2,"[Element Sr, Element Cu, Element F, Element O]","{'Sr': 2.0, 'Cu': 1.0, 'F': 2.0, 'O': 2.0}",Cuprates,4
Sr2BaCu1F2O2,46.0,Sr2 Ba1 Cu1 F2 O2,"[Element Sr, Element Ba, Element Cu, Element F, Element O]","{'Sr': 2.0, 'Ba': 1.0, 'Cu': 1.0, 'F': 2.0, 'O': 2.0}",Cuprates,5
Sr1.9Ba0.1Cu1F2O2,54.0,Sr1.9 Ba0.1 Cu1 F2 O2,"[Element Sr, Element Ba, Element Cu, Element F, Element O]","{'Sr': 1.9, 'Ba': 0.1, 'Cu': 1.0, 'F': 2.0, 'O': 2.0}",Cuprates,5
Sr1.75Ba0.25Cu1F2O2,58.0,Sr1.75 Ba0.25 Cu1 F2 O2,"[Element Sr, Element Ba, Element Cu, Element F, Element O]","{'Sr': 1.75, 'Ba': 0.25, 'Cu': 1.0, 'F': 2.0, 'O': 2.0}",Cuprates,5
Sr1.6Ba0.4Cu1F2O2,60.0,Sr1.6 Ba0.4 Cu1 F2 O2,"[Element Sr, Element Ba, Element Cu, Element F, Element O]","{'Sr': 1.6, 'Ba': 0.4, 'Cu': 1.0, 'F': 2.0, 'O': 2.0}",Cuprates,5
Sr1.5Ba0.5Cu1F2O2,62.0,Sr1.5 Ba0.5 Cu1 F2 O2,"[Element Sr, Element Ba, Element Cu, Element F, Element O]","{'Sr': 1.5, 'Ba': 0.5, 'Cu': 1.0, 'F': 2.0, 'O': 2.0}",Cuprates,5
Sr1.4Ba0.6Cu1F2O2,64.0,Sr1.4 Ba0.6 Cu1 F2 O2,"[Element Sr, Element Ba, Element Cu, Element F, Element O]","{'Sr': 1.4, 'Ba': 0.6, 'Cu': 1.0, 'F': 2.0, 'O': 2.0}",Cuprates,5
B1Sr2Ca3Cu4O11,110.0,B1 Sr2 Ca3 Cu4 O11,"[Element B, Element Sr, Element Ca, Element Cu, Element O]","{'B': 1.0, 'Sr': 2.0, 'Ca': 3.0, 'Cu': 4.0, 'O': 11.0}",Cuprates,5
La1.5Ba1Sr0.5Cu3O6.955,26.9,La1.5 Ba1 Sr0.5 Cu3 O6.955,"[Element La, Element Ba, Element Sr, Element Cu, Element O]","{'La': 1.5, 'Ba': 1.0, 'Sr': 0.5, 'Cu': 3.0, 'O': 6.955}",Cuprates,5
La1.1Ba1.4Sr0.5Cu3O6.954,50.1,La1.1 Ba1.4 Sr0.5 Cu3 O6.954,"[Element La, Element Ba, Element Sr, Element Cu, Element O]","{'La': 1.1, 'Ba': 1.4, 'Sr': 0.5, 'Cu': 3.0, 'O': 6.954}",Cuprates,5
La1Ba1.5Sr0.5Cu3O6.948,57.1,La1 Ba1.5 Sr0.5 Cu3 O6.948,"[Element La, Element Ba, Element Sr, Element Cu, Element O]","{'La': 1.0, 'Ba': 1.5, 'Sr': 0.5, 'Cu': 3.0, 'O': 6.948}",Cuprates,5
La1.2Ba1.3Sr0.5Cu3O6.943,45.1,La1.2 Ba1.3 Sr0.5 Cu3 O6.943,"[Element La, Element Ba, Element Sr, Element Cu, Element O]","{'La': 1.2, 'Ba': 1.3, 'Sr': 0.5, 'Cu': 3.0, 'O': 6.943}",Cuprates,5
La1.3Ba1.7SrCu3O6.885,32.0,La1.3 Ba1.7 Sr1 Cu3 O6.885,"[Element La, Element Ba, Element Sr, Element Cu, Element O]","{'La': 1.3, 'Ba': 1.7, 'Sr': 1.0, 'Cu': 3.0, 'O': 6.885}",Cuprates,5
La1.3Ba1.5Sr0.2Cu3O6.901,43.8,La1.3 Ba1.5 Sr0.2 Cu3 O6.901,"[Element La, Element Ba, Element Sr, Element Cu, Element O]","{'La': 1.3, 'Ba': 1.5, 'Sr': 0.2, 'Cu': 3.0, 'O': 6.901}",Cuprates,5
La1.3Ba1.4Sr0.3Cu3O6.91,50.0,La1.3 Ba1.4 Sr0.3 Cu3 O6.91,"[Element La, Element Ba, Element Sr, Element Cu, Element O]","{'La': 1.3, 'Ba': 1.4, 'Sr': 0.3, 'Cu': 3.0, 'O': 6.91}",Cuprates,5
La1.3Ba1.3Sr0.4Cu3O6.928,45.2,La1.3 Ba1.3 Sr0.4 Cu3 O6.928,"[Element La, Element Ba, Element Sr, Element Cu, Element O]","{'La': 1.3, 'Ba': 1.3, 'Sr': 0.4, 'Cu': 3.0, 'O': 6.928}",Cuprates,5
La1.3Ba1.2Sr0.5Cu3O6.955,38.0,La1.3 Ba1.2 Sr0.5 Cu3 O6.955,"[Element La, Element Ba, Element Sr, Element Cu, Element O]","{'La': 1.3, 'Ba': 1.2, 'Sr': 0.5, 'Cu': 3.0, 'O': 6.955}",Cuprates,5
Tl1Ba2Sr2Cu2C1O10,61.0,Tl1 Ba2 Sr2 Cu2 C1 O10,"[Element Tl, Element Ba, Element Sr, Element Cu, Element C, Element O]","{'Tl': 1.0, 'Ba': 2.0, 'Sr': 2.0, 'Cu': 2.0, 'C': 1.0, 'O': 10.0}",Cuprates,6
Tl0.67Cr0.33Sr4Cu2C1O10,77.0,Tl0.67 Cr0.33 Sr4 Cu2 C1 O10,"[Element Tl, Element Cr, Element Sr, Element Cu, Element C, Element O]","{'Tl': 0.67, 'Cr': 0.33, 'Sr': 4.0, 'Cu': 2.0, 'C': 1.0, 'O': 10.0}",Cuprates,6
Tl0.8V0.2Sr4Cu2C1O10,50.0,Tl0.8 V0.2 Sr4 Cu2 C1 O10,"[Element Tl, Element V, Element Sr, Element Cu, Element C, Element O]","{'Tl': 0.8, 'V': 0.2, 'Sr': 4.0, 'Cu': 2.0, 'C': 1.0, 'O': 10.0}",Cuprates,6
Tl0.5Pb0.5Sr4Cu2C1O10,71.0,Tl0.5 Pb0.5 Sr4 Cu2 C1 O10,"[Element Tl, Element Pb, Element Sr, Element Cu, Element C, Element O]","{'Tl': 0.5, 'Pb': 0.5, 'Sr': 4.0, 'Cu': 2.0, 'C': 1.0, 'O': 10.0}",Cuprates,6
La1.65Sm0.15Sr0.2Cu1O4,24.0,La1.65 Sm0.15 Sr0.2 Cu1 O4,"[Element La, Element Sm, Element Sr, Element Cu, Element O]","{'La': 1.65, 'Sm': 0.15, 'Sr': 0.2, 'Cu': 1.0, 'O': 4.0}",Cuprates,5
La1.5Sm0.3Sr0.2Cu1O4,17.0,La1.5 Sm0.3 Sr0.2 Cu1 O4,"[Element La, Element Sm, Element Sr, Element Cu, Element O]","{'La': 1.5, 'Sm': 0.3, 'Sr': 0.2, 'Cu': 1.0, 'O': 4.0}",Cuprates,5
La1.35Sm0.45Sr0.2Cu1O4,12.0,La1.35 Sm0.45 Sr0.2 Cu1 O4,"[Element La, Element Sm, Element Sr, Element Cu, Element O]","{'La': 1.35, 'Sm': 0.45, 'Sr': 0.2, 'Cu': 1.0, 'O': 4.0}",Cuprates,5
La1Sm0.8Sr0.2Cu1O4,35.0,La1 Sm0.8 Sr0.2 Cu1 O4,"[Element La, Element Sm, Element Sr, Element Cu, Element O]","{'La': 1.0, 'Sm': 0.8, 'Sr': 0.2, 'Cu': 1.0, 'O': 4.0}",Cuprates,5
Pb0.5Sr2Ca1Cu2.5O6.8,115.0,Pb0.5 Sr2 Ca1 Cu2.5 O6.8,"[Element Pb, Element Sr, Element Ca, Element Cu, Element O]","{'Pb': 0.5, 'Sr': 2.0, 'Ca': 1.0, 'Cu': 2.5, 'O': 6.8}",Cuprates,5
La1.96Na0.4Cu1O4,31.0,La1.96 Na0.4 Cu1 O4,"[Element La, Element Na, Element Cu, Element O]","{'La': 1.96, 'Na': 0.4, 'Cu': 1.0, 'O': 4.0}",Cuprates,4
La1.8K0.2Cu1O4,41.0,La1.8 K0.2 Cu1 O4,"[Element La, Element K, Element Cu, Element O]","{'La': 1.8, 'K': 0.2, 'Cu': 1.0, 'O': 4.0}",Cuprates,4
La1.92K0.08Cu1O4,21.0,La1.92 K0.08 Cu1 O4,"[Element La, Element K, Element Cu, Element O]","{'La': 1.92, 'K': 0.08, 'Cu': 1.0, 'O': 4.0}",Cuprates,4
Bi2Sr2Ca1Cu2O8.21,90.6,Bi2 Sr2 Ca1 Cu2 O8.21,"[Element Bi, Element Sr, Element Ca, Element Cu, Element O]","{'Bi': 2.0, 'Sr': 2.0, 'Ca': 1.0, 'Cu': 2.0, 'O': 8.21}",Cuprates,5
Bi2Sr2Ca1Cu2I0.03O8.21,86.6,Bi2 Sr2 Ca1 Cu2 I0.03 O8.21,"[Element Bi, Element Sr, Element Ca, Element Cu, Element I, Element O]","{'Bi': 2.0, 'Sr': 2.0, 'Ca': 1.0, 'Cu': 2.0, 'I': 0.03, 'O': 8.21}",Cuprates,6
Bi2Sr2Ca1Cu2I0.1O8.21,83.9,Bi2 Sr2 Ca1 Cu2 I0.1 O8.21,"[Element Bi, Element Sr, Element Ca, Element Cu, Element I, Element O]","{'Bi': 2.0, 'Sr': 2.0, 'Ca': 1.0, 'Cu': 2.0, 'I': 0.1, 'O': 8.21}",Cuprates,6
Bi2Sr2Ca1Cu2I0.25O8.21,71.6,Bi2 Sr2 Ca1 Cu2 I0.25 O8.21,"[Element Bi, Element Sr, Element Ca, Element Cu, Element I, Element O]","{'Bi': 2.0, 'Sr': 2.0, 'Ca': 1.0, 'Cu': 2.0, 'I': 0.25, 'O': 8.21}",Cuprates,6
Bi2Sr2Ca1Cu2I0.43O8.21,63.1,Bi2 Sr2 Ca1 Cu2 I0.43 O8.21,"[Element Bi, Element Sr, Element Ca, Element Cu, Element I, Element O]","{'Bi': 2.0, 'Sr': 2.0, 'Ca': 1.0, 'Cu': 2.0, 'I': 0.43, 'O': 8.21}",Cuprates,6
Bi2Sr2Ca1Cu2I0.61O8.21,56.3,Bi2 Sr2 Ca1 Cu2 I0.61 O8.21,"[Element Bi, Element Sr, Element Ca, Element Cu, Element I, Element O]","{'Bi': 2.0, 'Sr': 2.0, 'Ca': 1.0, 'Cu': 2.0, 'I': 0.61, 'O': 8.21}",Cuprates,6
Bi2Sr2Ca2Cu2I0.86O8.21,50.6,Bi2 Sr2 Ca2 Cu2 I0.86 O8.21,"[Element Bi, Element Sr, Element Ca, Element Cu, Element I, Element O]","{'Bi': 2.0, 'Sr': 2.0, 'Ca': 2.0, 'Cu': 2.0, 'I': 0.86, 'O': 8.21}",Cuprates,6
Bi2Sr2Ca1Cu2I0.98O8.21,49.3,Bi2 Sr2 Ca1 Cu2 I0.98 O8.21,"[Element Bi, Element Sr, Element Ca, Element Cu, Element I, Element O]","{'Bi': 2.0, 'Sr': 2.0, 'Ca': 1.0, 'Cu': 2.0, 'I': 0.98, 'O': 8.21}",Cuprates,6
Bi2Sr2Ca1Cu2O8.242,73.9,Bi2 Sr2 Ca1 Cu2 O8.242,"[Element Bi, Element Sr, Element Ca, Element Cu, Element O]","{'Bi': 2.0, 'Sr': 2.0, 'Ca': 1.0, 'Cu': 2.0, 'O': 8.242}",Cuprates,5
Bi2Sr2Ca1Cu2I0.2O8.242,64.6,Bi2 Sr2 Ca1 Cu2 I0.2 O8.242,"[Element Bi, Element Sr, Element Ca, Element Cu, Element I, Element O]","{'Bi': 2.0, 'Sr': 2.0, 'Ca': 1.0, 'Cu': 2.0, 'I': 0.2, 'O': 8.242}",Cuprates,6
Bi2Sr2Ca1Cu2I0.4O8.242,56.7,Bi2 Sr2 Ca1 Cu2 I0.4 O8.242,"[Element Bi, Element Sr, Element Ca, Element Cu, Element I, Element O]","{'Bi': 2.0, 'Sr': 2.0, 'Ca': 1.0, 'Cu': 2.0, 'I': 0.4, 'O': 8.242}",Cuprates,6
Bi2Sr2Ca1Cu2I0.69O8.242,53.1,Bi2 Sr2 Ca1 Cu2 I0.69 O8.242,"[Element Bi, Element Sr, Element Ca, Element Cu, Element I, Element O]","{'Bi': 2.0, 'Sr': 2.0, 'Ca': 1.0, 'Cu': 2.0, 'I': 0.69, 'O': 8.242}",Cuprates,6
Bi2Sr2Ca1Cu2I0.86O8.242,55.5,Bi2 Sr2 Ca1 Cu2 I0.86 O8.242,"[Element Bi, Element Sr, Element Ca, Element Cu, Element I, Element O]","{'Bi': 2.0, 'Sr': 2.0, 'Ca': 1.0, 'Cu': 2.0, 'I': 0.86, 'O': 8.242}",Cuprates,6
Bi2Sr2Ca1Cu2I1O8.242,53.0,Bi2 Sr2 Ca1 Cu2 I1 O8.242,"[Element Bi, Element Sr, Element Ca, Element Cu, Element I, Element O]","{'Bi': 2.0, 'Sr': 2.0, 'Ca': 1.0, 'Cu': 2.0, 'I': 1.0, 'O': 8.242}",Cuprates,6
Na2Rb1C60,3.4,Na2 Rb1 C60,"[Element Na, Element Rb, Element C]","{'Na': 2.0, 'Rb': 1.0, 'C': 60.0}",Other,3
Na2Rb0.75Cs0.25C60,5.2,Na2 Rb0.75 Cs0.25 C60,"[Element Na, Element Rb, Element Cs, Element C]","{'Na': 2.0, 'Rb': 0.75, 'Cs': 0.25, 'C': 60.0}",Other,4
Na2Rb0.5Cs0.5C60,8.4,Na2 Rb0.5 Cs0.5 C60,"[Element Na, Element Rb, Element Cs, Element C]","{'Na': 2.0, 'Rb': 0.5, 'Cs': 0.5, 'C': 60.0}",Other,4
Na2Rb0.25Cs0.75C60,9.4,Na2 Rb0.25 Cs0.75 C60,"[Element Na, Element Rb, Element Cs, Element C]","{'Na': 2.0, 'Rb': 0.25, 'Cs': 0.75, 'C': 60.0}",Other,4
Na2Cs1C60,11.7,Na2 Cs1 C60,"[Element Na, Element Cs, Element C]","{'Na': 2.0, 'Cs': 1.0, 'C': 60.0}",Other,3
Sr1.75K0.25Cu1C1O5,13.0,Sr1.75 K0.25 Cu1 C1 O5,"[Element Sr, Element K, Element Cu, Element C, Element O]","{'Sr': 1.75, 'K': 0.25, 'Cu': 1.0, 'C': 1.0, 'O': 5.0}",Cuprates,5
Sr1.7K0.3Cu1C1O5,16.0,Sr1.7 K0.3 Cu1 C1 O5,"[Element Sr, Element K, Element Cu, Element C, Element O]","{'Sr': 1.7, 'K': 0.3, 'Cu': 1.0, 'C': 1.0, 'O': 5.0}",Cuprates,5
Sr1.6K0.4Cu1C1O5,23.0,Sr1.6 K0.4 Cu1 C1 O5,"[Element Sr, Element K, Element Cu, Element C, Element O]","{'Sr': 1.6, 'K': 0.4, 'Cu': 1.0, 'C': 1.0, 'O': 5.0}",Cuprates,5
Sr1.5K0.5Cu1C1O5,20.0,Sr1.5 K0.5 Cu1 C1 O5,"[Element Sr, Element K, Element Cu, Element C, Element O]","{'Sr': 1.5, 'K': 0.5, 'Cu': 1.0, 'C': 1.0, 'O': 5.0}",Cuprates,5
Sr1.4K0.6Cu1C1O5,21.0,Sr1.4 K0.6 Cu1 C1 O5,"[Element Sr, Element K, Element Cu, Element C, Element O]","{'Sr': 1.4, 'K': 0.6, 'Cu': 1.0, 'C': 1.0, 'O': 5.0}",Cuprates,5
Sr1.3K0.7Cu1C1O5,20.0,Sr1.3 K0.7 Cu1 C1 O5,"[Element Sr, Element K, Element Cu, Element C, Element O]","{'Sr': 1.3, 'K': 0.7, 'Cu': 1.0, 'C': 1.0, 'O': 5.0}",Cuprates,5
La1Ba2Cu3O6.89,76.0,La1 Ba2 Cu3 O6.89,"[Element La, Element Ba, Element Cu, Element O]","{'La': 1.0, 'Ba': 2.0, 'Cu': 3.0, 'O': 6.89}",Cuprates,4
La1Ba2Cu2.95Co0.05O6.94,40.5,La1 Ba2 Cu2.95 Co0.05 O6.94,"[Element La, Element Ba, Element Cu, Element Co, Element O]","{'La': 1.0, 'Ba': 2.0, 'Cu': 2.95, 'Co': 0.05, 'O': 6.94}",Cuprates,5
Tl1Ba2Ca2Cu3O9,118.0,Tl1 Ba2 Ca2 Cu3 O9,"[Element Tl, Element Ba, Element Ca, Element Cu, Element O]","{'Tl': 1.0, 'Ba': 2.0, 'Ca': 2.0, 'Cu': 3.0, 'O': 9.0}",Cuprates,5
Tl1Ba1Sr1Ca2Cu3O9,105.0,Tl1 Ba1 Sr1 Ca2 Cu3 O9,"[Element Tl, Element Ba, Element Sr, Element Ca, Element Cu, Element O]","{'Tl': 1.0, 'Ba': 1.0, 'Sr': 1.0, 'Ca': 2.0, 'Cu': 3.0, 'O': 9.0}",Cuprates,6
Pb2Sr0.9La1.1Cu2O6.31,33.2,Pb2 Sr0.9 La1.1 Cu2 O6.31,"[Element Pb, Element Sr, Element La, Element Cu, Element O]","{'Pb': 2.0, 'Sr': 0.9, 'La': 1.1, 'Cu': 2.0, 'O': 6.31}",Cuprates,5
Pb2Sr0.9La1.1Cu2O6.65,30.3,Pb2 Sr0.9 La1.1 Cu2 O6.65,"[Element Pb, Element Sr, Element La, Element Cu, Element O]","{'Pb': 2.0, 'Sr': 0.9, 'La': 1.1, 'Cu': 2.0, 'O': 6.65}",Cuprates,5
Pb2Cu0.9La1.1Cu2O7.42,18.1,Pb2 Cu2.9 La1.1 O7.42,"[Element Pb, Element Cu, Element La, Element O]","{'Pb': 2.0, 'Cu': 2.9, 'La': 1.1, 'O': 7.42}",Cuprates,4
Pb2Cu0.9La1.1Cu2O6.28,33.4,Pb2 Cu2.9 La1.1 O6.28,"[Element Pb, Element Cu, Element La, Element O]","{'Pb': 2.0, 'Cu': 2.9, 'La': 1.1, 'O': 6.28}",Cuprates,4
Pb2Cu0.9La1.1Cu2O6.24,31.3,Pb2 Cu2.9 La1.1 O6.24,"[Element Pb, Element Cu, Element La, Element O]","{'Pb': 2.0, 'Cu': 2.9, 'La': 1.1, 'O': 6.24}",Cuprates,4
Pb2Cu0.9La1.1Cu2O6.19,19.8,Pb2 Cu2.9 La1.1 O6.19,"[Element Pb, Element Cu, Element La, Element O]","{'Pb': 2.0, 'Cu': 2.9, 'La': 1.1, 'O': 6.19}",Cuprates,4
Ca0.3Ba1.45La1.25Cu3O6.96,9.6,Ca0.3 Ba1.45 La1.25 Cu3 O6.96,"[Element Ca, Element Ba, Element La, Element Cu, Element O]","{'Ca': 0.3, 'Ba': 1.45, 'La': 1.25, 'Cu': 3.0, 'O': 6.96}",Cuprates,5
Ca0.3Ba1.45La1.25Cu3O7,28.3,Ca0.3 Ba1.45 La1.25 Cu3 O7,"[Element Ca, Element Ba, Element La, Element Cu, Element O]","{'Ca': 0.3, 'Ba': 1.45, 'La': 1.25, 'Cu': 3.0, 'O': 7.0}",Cuprates,5
Ca0.3Ba1.45La1.25Cu3O7.05,46.4,Ca0.3 Ba1.45 La1.25 Cu3 O7.05,"[Element Ca, Element Ba, Element La, Element Cu, Element O]","{'Ca': 0.3, 'Ba': 1.45, 'La': 1.25, 'Cu': 3.0, 'O': 7.05}",Cuprates,5
Ca0.3Ba1.45La1.25Cu3O7.12,69.3,Ca0.3 Ba1.45 La1.25 Cu3 O7.12,"[Element Ca, Element Ba, Element La, Element Cu, Element O]","{'Ca': 0.3, 'Ba': 1.45, 'La': 1.25, 'Cu': 3.0, 'O': 7.12}",Cuprates,5
Ca0.2Ba1.55La1.25Cu3O6.98,10.4,Ca0.2 Ba1.55 La1.25 Cu3 O6.98,"[Element Ca, Element Ba, Element La, Element Cu, Element O]","{'Ca': 0.2, 'Ba': 1.55, 'La': 1.25, 'Cu': 3.0, 'O': 6.98}",Cuprates,5
Ca0.2Ba1.55La1.25Cu3O6.99,14.4,Ca0.2 Ba1.55 La1.25 Cu3 O6.99,"[Element Ca, Element Ba, Element La, Element Cu, Element O]","{'Ca': 0.2, 'Ba': 1.55, 'La': 1.25, 'Cu': 3.0, 'O': 6.99}",Cuprates,5
Ca0.2Ba1.55La1.25Cu3O7.01,25.1,Ca0.2 Ba1.55 La1.25 Cu3 O7.01,"[Element Ca, Element Ba, Element La, Element Cu, Element O]","{'Ca': 0.2, 'Ba': 1.55, 'La': 1.25, 'Cu': 3.0, 'O': 7.01}",Cuprates,5